<VTKFile type="UnstructuredGrid" version="1.0" byte_order="LittleEndian" header_type="UInt64">
  <UnstructuredGrid>
    <Piece NumberOfPoints="2744" NumberOfCells="11880">
      <PointData>
        <DataArray type="Float32" Name="Velocity" NumberOfComponents="3" format="ascii" RangeMin="10.934799813503776" RangeMax="12.613100072332623">
          -0.009470036253333092 -11.052240371704102 -0.006475356407463551 0.008618107996881008 -11.052579879760742 -0.006232717540115118
          0.00642945384606719 -11.182260513305664 0.004584100097417831 -0.011320005171000957 -11.105819702148438 0.0033110580407083035
          -0.0036640397738665342 -10.987159729003906 -0.009751337580382824 -0.0014297041343525052 -10.986459732055664 -0.009390371851623058
          0.001218636753037572 -10.98568058013916 -0.009420846588909626 0.00291881593875587 -10.985539436340332 -0.009441917762160301
          0.00597000028938055 -10.986419677734375 -0.009910020045936108 0.007681699935346842 -11.122459411621094 0.007290463894605637
          0.004803841933608055 -11.078120231628418 0.005164202302694321 0.002138397190719843 -11.05165958404541 0.002929131966084242
          -0.00020723437773995101 -11.038540840148926 0.001355583081021905 -0.005211447831243277 -11.03302001953125 -0.0008850863086991012
          -0.009210599586367607 -11.144359588623047 0.0073853060603141785 -0.003789115697145462 -11.1558198928833 0.00815250538289547
          -0.001956331077963114 -11.14937973022461 0.007500986102968454 -0.0007754520047456026 -11.148879051208496 0.007046972867101431
          0.002659416291862726 -11.161140441894531 0.006635255180299282 0.003742912784218788 -11.036779403686523 -0.0009763987618498504
          -0.0006389021291397512 -11.03731918334961 0.0005156503757461905 -0.004818343557417393 -11.041160583496094 0.0010941302170976996
          -0.009157568216323853 -11.050419807434082 0.0022690393961966038 -0.012900578789412975 -11.069419860839844 0.004070983733981848
          -0.01087494008243084 -11.048174858093262 0.010001895017921925 -0.004740552045404911 -11.05840015411377 0.010730531997978687
          -0.0022977041080594063 -11.05875015258789 0.010420558974146843 -0.0009825127199292183 -11.058525085449219 0.010310152545571327
          0.0034361386206001043 -11.065950393676758 0.01076640747487545 -0.007341552525758743 -10.990275382995605 0.006437069736421108
          -0.003038612427189946 -10.996125221252441 0.007065252400934696 -0.001027178019285202 -10.99625015258789 0.00711631728336215
          -0.00015220424393191934 -10.995624542236328 0.0071325949393212795 0.002383843995630741 -10.998649597167969 0.007427834905683994
          -0.0037234413903206587 -10.955775260925293 0.0036088572815060616 -0.0011141119757667184 -10.958724975585938 0.003967490047216415
          -0.00017267245857510716 -10.958874702453613 0.0040395199321210384 0.00002470640538376756 -10.958324432373047 0.00406001228839159
          0.001179540529847145 -10.959375381469727 0.0042172749526798725 -0.0002071472117677331 -10.939299583435059 0.0018443551380187273
          0.0004236092499922961 -10.940650939941406 0.0019617273937910795 0.0005593000096268952 -10.940874099731445 0.0020084548741579056
          -0.0003229106077924371 -10.940500259399414 0.0019236925290897489 -0.0004235866654198617 -10.940475463867188 0.0019191798055544496
          0.0030268740374594927 -10.934799194335938 -0.002092602662742138 0.0015726890414953232 -10.936474800109863 -0.002093715127557516
          0.001086684176698327 -10.936750411987305 -0.0020569900516420603 -0.0008750732522457838 -10.936624526977539 -0.0021119173616170883
          -0.002797522582113743 -10.936249732971191 -0.0020994902588427067 -0.008831360377371311 -11.390979766845703 -0.008772431872785091
          0.007820149883627892 -11.391670227050781 -0.00831794086843729 0.00562580581754446 -11.45979118347168 0.006057006772607565
          -0.010624310933053493 -11.417570114135742 0.004455507732927799 -0.003514070762321353 -11.352819442749023 -0.013182984665036201
          -0.001266969251446426 -11.352799415588379 -0.012783912941813469 0.0012055478291586041 -11.352389335632324 -0.012698513455688953
          0.0026607029139995575 -11.35215950012207 -0.012706711888313293 0.00558528583496809 -11.352350234985352 -0.013188755139708519
          0.007045161910355091 -11.428730010986328 0.009543775580823421 0.004501340910792351 -11.405399322509766 0.006748218089342117
          0.002039889572188258 -11.390619277954102 0.0037965208757668734 -0.00021656928583979607 -11.383270263671875 0.0016238285461440682
          -0.004753001965582371 -11.380549430847168 -0.0013171205064281821 -0.008682242594659328 -11.439129829406738 0.009758207015693188
          -0.003727699862793088 -11.44555950164795 0.010730540379881859 -0.0018753133481368423 -11.441339492797852 0.010033166036009789
          -0.0007459511980414391 -11.440500259399414 0.009506667032837868 0.002323747146874666 -11.446969985961914 0.00882960669696331
          0.0035546286962926388 -11.383031845092773 -0.0015559097519144416 -0.0005679291789419949 -11.382560729980469 0.000516527914442122
          -0.004588034003973007 -11.384650230407715 0.0014689948875457048 -0.008749309927225113 -11.389780044555664 0.0030636857263743877
          -0.012075390666723251 -11.399331092834473 0.005335099063813686 -0.010350572876632214 -11.386799812316895 0.01290047261863947
          -0.004665708169341087 -11.392674446105957 0.013902866281569004 -0.002247220603749156 -11.392412185668945 0.013606667518615723
          -0.0009153347346000373 -11.391674041748047 0.013502975925803185 0.0031736548990011215 -11.39528751373291 0.013996278867125511
          -0.007340648677200079 -11.355213165283203 0.00847596675157547 -0.0032144824508577585 -11.358776092529297 0.009357159957289696
          -0.0012167213717475533 -11.358436584472656 0.009470520541071892 -0.00023767576203681529 -11.357450485229492 0.009495314210653305
          0.0023066294379532337 -11.358686447143555 0.009843619540333748 -0.0036903705913573503 -11.334962844848633 0.00468651857227087
          -0.0012447903864085674 -11.3369140625 0.005208446644246578 -0.0002588399511296302 -11.336774826049805 0.00532609224319458
          -0.000040624148823553696 -11.335973739624023 0.005347600672394037 0.001141974818892777 -11.33606243133545 0.0055527398362755775
          -0.00022250486654229462 -11.325349807739258 0.0020118257962167263 0.0003663102397695184 -11.326475143432617 0.0021142426412552595
          0.0005438692751340568 -11.326537132263184 0.002193355467170477 -0.00032213315716944635 -11.325986862182617 0.0022164422553032637
          -0.0003791635681409389 -11.325387954711914 0.0022964419331401587 0.002675104420632124 -11.32346248626709 -0.0029578544199466705
          0.0013428882230073214 -11.324312210083008 -0.0029463861137628555 0.0010060585336759686 -11.324474334716797 -0.002892076037824154
          -0.000922807608731091 -11.324286460876465 -0.002887824084609747 -0.0025657713413238525 -11.323649406433105 -0.002773674437776208
          -0.007600951008498669 -11.762260437011719 -0.010684036649763584 0.00652717798948288 -11.76283073425293 -0.010024587623775005
          0.00439099594950676 -11.761129379272461 0.007510571274906397 -0.009311488829553127 -11.757980346679688 0.005600293632596731
          -0.0032922481186687946 -11.755929946899414 -0.015952518209815025 -0.0011126750614494085 -11.756668090820312 -0.015812836587429047
          0.001164594548754394 -11.7566499710083 -0.01567767933011055 0.002356184646487236 -11.756338119506836 -0.0156550295650959
          0.00499122915789485 -11.755680084228516 -0.015782024711370468 0.005813443101942539 -11.762239456176758 0.011314522475004196
          0.003895119298249483 -11.762749671936035 0.008036000654101372 0.001809090026654303 -11.761809349060059 0.004494738765060902
          -0.0001987902942346409 -11.761320114135742 0.0017812257865443826 -0.0038929316215217113 -11.761839866638184 -0.0021053641103208065
          -0.007821555249392986 -11.7601900100708 0.011739347130060196 -0.003678465262055397 -11.760700225830078 0.012899410910904408
          -0.0018825491424649954 -11.759010314941406 0.012284841388463974 -0.000808754179161042 -11.757801055908203 0.011642121709883213
          0.0017443920951336622 -11.757780075073242 0.010849401354789734 0.0032555381767451763 -11.76282024383545 -0.002601797226816416
          -0.0004162557306699455 -11.761459350585938 0.00039147151983343065 -0.004086059983819723 -11.76140022277832 0.0018543846672400832
          -0.007852787151932716 -11.761419296264648 0.0038548565935343504 -0.010523544624447823 -11.760080337524414 0.006477535702288151
          -0.009323880076408386 -11.757987976074219 0.01514512486755848 -0.004553737118840218 -11.758874893188477 0.016560500487685204
          -0.0022062063217163086 -11.757987976074219 0.016428174450993538 -0.0008240216411650181 -11.756699562072754 0.016349701210856438
          0.00269100209698081 -11.755988121032715 0.016651701182127 -0.007004318293184042 -11.75670051574707 0.010116197168827057
          -0.003349901409819722 -11.757549285888672 0.011286118999123573 -0.0013946018880233169 -11.756750106811523 0.011529889889061451
          -0.0002951893548015505 -11.755374908447266 0.01157007459551096 0.0021115862764418125 -11.754425048828125 0.011834920383989811
          -0.003443863708525896 -11.753725051879883 0.00552341528236866 -0.0013260600389912724 -11.754476547241211 0.006169861648231745
          -0.00031712016789242625 -11.754036903381348 0.006372546311467886 -0.00009664504614192992 -11.752949714660645 0.006408301182091236
          0.001019313815049827 -11.751836776733398 0.006602281238883734 -0.0001752024982124567 -11.752462387084961 0.002008194802328944
          0.0003279836382716894 -11.7532377243042 0.002240111120045185 0.0005584474420174956 -11.753087043762207 0.002367890439927578
          -0.0002472935593686998 -11.752286911010742 0.002463128650560975 -0.00024922360898926854 -11.750937461853027 0.002598763210698962
          0.002277241786941886 -11.753575325012207 -0.004357454366981983 0.0010797118302434683 -11.753761291503906 -0.0042388965375721455
          0.0009081790340133011 -11.753774642944336 -0.0041739908047020435 -0.0008832802996039391 -11.753425598144531 -0.004157382529228926
          -0.00211739307269454 -11.752349853515625 -0.003949359059333801 -0.006409363355487585 -11.799120903015137 -0.00953013263642788
          0.005609824787825346 -11.799100875854492 -0.009021354839205742 0.0036039832048118114 -11.788320541381836 0.007088060490787029
          -0.008193335495889187 -11.790779113769531 0.005350949242711067 -0.003002731828019023 -11.798590660095215 -0.014096965081989765
          -0.0011103239376097918 -11.799450874328613 -0.014402705244719982 0.0011404859833419323 -11.799409866333008 -0.01436215452849865
          0.002307300688698888 -11.799159049987793 -0.0143422307446599 0.004649537615478039 -11.79827880859375 -0.013997472822666168
          0.004780393093824387 -11.792989730834961 0.010264345444738865 0.0033511798828840256 -11.796689987182617 0.007486020214855671
          0.0015824399888515472 -11.798359870910645 0.0041958121582865715 -0.00017865178233478218 -11.799220085144043 0.0015016773249953985
          -0.003249668749049306 -11.800111770629883 -0.002548075746744871 -0.0072098723612725735 -11.790250778198242 0.01062445156276226
          -0.003672230988740921 -11.789700508117676 0.011724992655217648 -0.001992172095924616 -11.78839111328125 0.011326002888381481
          -0.0009568360401317477 -11.787190437316895 0.010694650001823902 0.0013045122614130378 -11.786449432373047 0.009985911659896374
          0.0029449141584336758 -11.8008394241333 -0.0030743114184588194 -0.0002982638543471694 -11.799820899963379 0.00023255290579982102
          -0.0035554878413677216 -11.799330711364746 0.0018364746356382966 -0.00694956025108695 -11.798099517822266 0.0038264631293714046
          -0.009209124371409416 -11.795109748840332 0.006126570049673319 -0.008434331975877285 -11.794898986816406 0.01365705020725727
          -0.004466586746275425 -11.794974327087402 0.015181287191808224 -0.0022209538146853447 -11.794086456298828 0.015246963128447533
          -0.0007960464572533965 -11.792787551879883 0.015195713378489017 0.002286058384925127 -11.791524887084961 0.01516713760793209
          -0.0063707358203828335 -11.798250198364258 0.009357284754514694 -0.003253647591918707 -11.798561096191406 0.01054983027279377
          -0.0013728055637329817 -11.79776382446289 0.010874010622501373 -0.000258004991337657 -11.796361923217773 0.010923853144049644
          0.001897064270451665 -11.794949531555176 0.010989394970238209 -0.003016084898263216 -11.799012184143066 0.005072606261819601
          -0.001241552410647273 -11.79946231842041 0.005702881142497063 -0.0002828198776114732 -11.79898738861084 0.0059562004171311855
          -0.00006392937211785465 -11.797850608825684 0.005995917599648237 0.0009131379774771631 -11.796475410461426 0.006085180211812258
          -0.00010078446939587593 -11.799487113952637 0.0016809324733912945 0.0003426105249673128 -11.80009937286377 0.0019435033900663257
          0.0005856987554579973 -11.799875259399414 0.002099099103361368 -0.00013518650666810572 -11.799012184143066 0.002169043989852071
          -0.00012779762619175017 -11.797500610351562 0.0022658780217170715 0.0020971824415028095 -11.800774574279785 -0.004777615889906883
          0.0010471697896718979 -11.801199913024902 -0.0047185588628053665 0.0009027911582961679 -11.801188468933105 -0.004673344548791647
          -0.0007432340644299984 -11.800738334655762 -0.004669453948736191 -0.0017773263389244676 -11.799463272094727 -0.004419525619596243
          -0.0053594354540109634 -11.803850173950195 -0.008154351264238358 0.0048450990580022335 -11.803720474243164 -0.007822947576642036
          0.0029555961955338717 -11.792659759521484 0.006350701209157705 -0.007290243171155453 -11.795829772949219 0.00487365759909153
          -0.0026211498770862818 -11.804330825805664 -0.011913369409739971 -0.0010817197617143393 -11.80526065826416 -0.012507426552474499
          0.001156161306425929 -11.805180549621582 -0.012492150999605656 0.0023173359222710133 -11.805028915405273 -0.012461897917091846
          0.004385949578136206 -11.804059982299805 -0.011912229470908642 0.003971285652369261 -11.797049522399902 0.00912090390920639
          0.00289048976264894 -11.801009178161621 0.0069514052011072636 0.0014057167572900653 -11.803239822387695 0.003952370025217533
          -0.0001741518935887143 -11.804410934448242 0.0012157339369878173 -0.0028142426162958145 -11.80510139465332 -0.002670794725418091
          -0.006597080733627081 -11.794949531555176 0.009186221286654472 -0.0035929791629314423 -11.79419994354248 0.010266801342368126
          -0.0020145722664892673 -11.793020248413086 0.010025021620094776 -0.0010543933603912592 -11.79185962677002 0.00946725718677044
          0.0009376319940201938 -11.791170120239258 0.008746843785047531 0.0026351166889071465 -11.805859565734863 -0.003105824813246727
          -0.00023159896954894066 -11.80526065826416 0.00011695511784637347 -0.003133259015157819 -11.804731369018555 0.001807755441404879
          -0.006162568926811218 -11.80315113067627 0.003734820056706667 -0.008114014752209187 -11.799979209899902 0.005649651866406202
          -0.007676030043512583 -11.799887657165527 0.012024479918181896 -0.004347473848611116 -11.799698829650879 0.013507811352610588
          -0.0022282402496784925 -11.798849105834961 0.013661437667906284 -0.0007961745141074061 -11.797599792480469 0.013616975396871567
          0.0019275580998510122 -11.796299934387207 0.013370774686336517 -0.00579079519957304 -11.803886413574219 0.008604873903095722
          -0.003134052501991391 -11.804011344909668 0.009775560349225998 -0.001354598207399249 -11.803224563598633 0.010122708976268768
          -0.00024695973843336105 -11.801837921142578 0.010176500305533409 0.0016939722700044513 -11.800350189208984 0.01011563464999199
          -0.0026980971451848745 -11.805538177490234 0.004724880214780569 -0.0011906698346138 -11.805763244628906 0.005367634817957878
          -0.0002893107302952558 -11.805225372314453 0.005637675989419222 -0.00000362520904673147 -11.804112434387207 0.005675418768078089
          0.0008984490996226668 -11.802750587463379 0.0056965965777635574 -0.0000782063725637272 -11.806337356567383 0.0013502517249435186
          0.0003233646275475621 -11.806825637817383 0.0015221835346892476 0.0005683592753484845 -11.806524276733398 0.0016948016127571464
          -0.00006249545549508184 -11.805700302124023 0.0017831461736932397 -0.00004507360790739767 -11.804250717163086 0.0018643438816070557
          0.0019940659403800964 -11.807162284851074 -0.004637834616005421 0.0011379782808944583 -11.807649612426758 -0.004763563629239798
          0.0009802368003875017 -11.807638168334961 -0.0047363159246742725 -0.0006314294878393412 -11.807148933410645 -0.004706905223429203
          -0.001567389816045761 -11.805862426757812 -0.004378203768283129 -0.004548664204776287 -11.804049491882324 -0.007041223347187042
          0.004219402559101582 -11.803949356079102 -0.006802850402891636 0.0024229311384260654 -11.794050216674805 0.005711570382118225
          -0.006546849850565195 -11.797060012817383 0.004446673206984997 -0.0022980538196861744 -11.80457878112793 -0.010125407949090004
          -0.0009769884636625648 -11.805438995361328 -0.010871777310967445 0.0011745777446776628 -11.805429458618164 -0.01090076845139265
          0.0023201308213174343 -11.805339813232422 -0.010826033540070057 0.004115609917789698 -11.804399490356445 -0.010133176110684872
          0.003289921209216118 -11.797699928283691 0.008074919693171978 0.0024713389575481415 -11.801349639892578 0.006397651042789221
          0.0012408440234139562 -11.803689956665039 0.003686382668092847 -0.00015067699132487178 -11.804920196533203 0.0009924826445057988
          -0.002464418765157461 -11.805339813232422 -0.0026855350006371737 -0.0060069626197218895 -11.796250343322754 0.007923970930278301
          -0.00348518043756485 -11.795470237731934 0.008980439975857735 -0.0020190051291137934 -11.794381141662598 0.008873995393514633
          -0.001129574840888381 -11.793279647827148 0.00837183091789484 0.0006181836361065507 -11.792669296264648 0.007703403942286968
          0.002407649764791131 -11.806259155273438 -0.0030739468056708574 -0.0001652420178288594 -11.805990219116211 -0.000015842722859815694
          -0.0027995300479233265 -11.805479049682617 0.001765854423865676 -0.0054701571352779865 -11.80381965637207 0.0035830982960760593
          -0.007181152701377869 -11.80077075958252 0.005172157660126686 -0.0069894143380224705 -11.800538063049316 0.010543817654252052
          -0.00419573625549674 -11.800212860107422 0.011976824142038822 -0.0022287601605057716 -11.799412727355957 0.012192124500870705
          -0.0008180905133485794 -11.798199653625488 0.012148887850344181 0.001603458309546113 -11.79694938659668 0.011756125837564468
          -0.005261620040982962 -11.804399490356445 0.007840093225240707 -0.0029954768251627684 -11.804388046264648 0.008981670252978802
          -0.0013348473003134131 -11.803625106811523 0.009343481622636318 -0.000250101467827335 -11.802262306213379 0.009399287402629852
          0.0014880403177812696 -11.800786972045898 0.009236063808202744 -0.0024580052122473717 -11.80625057220459 0.004371929913759232
          -0.0011321298079565167 -11.806286811828613 0.004991097841411829 -0.0002917812380474061 -11.805700302124023 0.00526824127882719
          0.00004696302494267002 -11.804637908935547 0.005316599737852812 0.0008745590457692742 -11.803350448608398 0.005297145806252956
          -0.00003221874067094177 -11.807111740112305 0.0010359019506722689 0.0003161884960718453 -11.807461738586426 0.001220489852130413
          0.0005570570356212556 -11.807100296020508 0.0013976020272821188 -9.928480722010136e-7 -11.80630111694336 0.0015021782601252198
          0.00003061964162043296 -11.804938316345215 0.001576389535330236 0.001975136576220393 -11.807499885559082 -0.004458151757717133
          0.0012343053240329027 -11.807924270629883 -0.004626678768545389 0.0010579506633803248 -11.807887077331543 -0.004604755900800228
          -0.000525414478033781 -11.80736255645752 -0.004567756783217192 -0.0013919122284278274 -11.806099891662598 -0.004225309006869793
          -0.0039015531074255705 -11.803568840026855 -0.006137072574347258 0.003698786022141576 -11.803529739379883 -0.005967850796878338
          0.001985142007470131 -11.7947998046875 0.0051539200358092785 -0.005918028764426708 -11.797550201416016 0.0040720789693295956
          -0.00199486268684268 -11.803910255432129 -0.00868691224604845 -0.0008381384541280568 -11.804620742797852 -0.009455126710236073
          0.0011758004548028111 -11.804709434509277 -0.009532682597637177 0.0022858637385070324 -11.804630279541016 -0.009436851367354393
          0.0038459959905594587 -11.803779602050781 -0.008686821907758713 0.0027196251321583986 -11.79784107208252 0.007188028190284967
          0.0020965440198779106 -11.801070213317871 0.005859551019966602 0.0010821915930137038 -11.803369522094727 0.0033926907926797867
          -0.00012928430805914104 -11.804570198059082 0.0008030830067582428 -0.0021737893112003803 -11.804780006408691 -0.0026111803017556667
          -0.005541875027120113 -11.796871185302734 0.006924116518348455 -0.003400490852072835 -11.796091079711914 0.00789507944136858
          -0.0020381896756589413 -11.795060157775879 0.007888106629252434 -0.0011898062657564878 -11.794060707092285 0.007463186979293823
          0.0003585248196031898 -11.793489456176758 0.0068196868523955345 0.002186655532568693 -11.805879592895508 -0.0029482231475412846
          -0.00009061169112101197 -11.805839538574219 -0.00010901283530984074 -0.00247476389631629 -11.805350303649902 0.0016824323683977127
          -0.004873715806752443 -11.803709030151367 0.0034014072734862566 -0.006396736018359661 -11.800859451293945 0.004728385247290134
          -0.006396947894245386 -11.800450325012207 0.0092695327475667 -0.004025398287922144 -11.800037384033203 0.010615695267915726
          -0.002217102563008666 -11.799300193786621 0.010872701182961464 -0.000859493506141007 -11.798137664794922 0.01083351206034422
          0.0013129079015925527 -11.79699993133545 0.010384302586317062 -0.004794445354491472 -11.803999900817871 0.007116044405847788
          -0.0028417622670531273 -11.803874969482422 0.008208797313272953 -0.0013054660521447659 -11.803138732910156 0.008577912114560604
          -0.0002613711403682828 -11.801825523376465 0.008633102290332317 0.0012957464205101132 -11.80042552947998 0.008399643935263157
          -0.002191903768107295 -11.805862426757812 0.0039704036898911 -0.001041799783706665 -11.805788040161133 0.004562302492558956
          -0.0002651974209584296 -11.805188179016113 0.0048403050750494 0.00006989373650867492 -11.804162979125977 0.004893739707767963
          0.0008105711895041168 -11.802949905395508 0.004841340705752373 0.000039965852920431644 -11.806724548339844 0.000780204776674509
          0.00033641475602053106 -11.806949615478516 0.000957182957790792 0.0005695350700989366 -11.806562423706055 0.0011307711247354746
          0.00004932961019221693 -11.80577564239502 0.0012481013545766473 0.00008031916513573378 -11.804475784301758 0.0013188348384574056
          0.0018684171373024583 -11.806775093078613 -0.004155208822339773 0.0012346097500994802 -11.807075500488281 -0.004357593134045601
          0.0010783352190628648 -11.807000160217285 -0.004348562564700842 -0.0004327559727244079 -11.806488037109375 -0.004273801110684872
          -0.0012130275135859847 -11.805288314819336 -0.0039285277016460896 -0.003378429217264056 -11.803030014038086 -0.005410230718553066
          0.003274309914559126 -11.803060531616211 -0.005250386893749237 0.0016238696407526731 -11.79535961151123 0.004678786266595125
          -0.005371228326112032 -11.797880172729492 0.0037448089569807053 -0.001722722896374762 -11.803159713745117 -0.007519924081861973
          -0.0007374329725280404 -11.803801536560059 -0.00828869454562664 0.0011648194631561637 -11.80392074584961 -0.008375647477805614
          0.002231673803180456 -11.80383014678955 -0.008262565359473228 0.003601283999159932 -11.803070068359375 -0.007502295076847076
          0.002240760251879692 -11.797900199890137 0.006404654122889042 0.0017649655928835273 -11.80072021484375 0.005343601107597351
          0.0009365760488435626 -11.802919387817383 0.0031226358842104673 -0.00011342608922859654 -11.804059982299805 0.0006533339619636536
          -0.001933144056238234 -11.804160118103027 -0.002499028341844678 -0.005147984251379967 -11.797310829162598 0.006091451272368431
          -0.0033190897665917873 -11.796541213989258 0.0069829062558710575 -0.0020698269363492727 -11.795539855957031 0.0070304786786437035
          -0.0012563146883621812 -11.794610023498535 0.006682842969894409 0.00014354439917951822 -11.794090270996094 0.006094851531088352
          0.001996508101001382 -11.805399894714355 -0.002802159171551466 -0.00002049559225270059 -11.805529594421387 -0.00017476832726970315
          -0.0021859307307749987 -11.80504035949707 0.0015956958523020148 -0.0043585230596363544 -11.80344009399414 0.00320282019674778
          -0.005733012687414885 -11.800809860229492 0.0043199919164180756 -0.005882233381271362 -11.800288200378418 0.00817374512553215
          -0.0038558398373425007 -11.799799919128418 0.009418362751603127 -0.002193881431594491 -11.799087524414062 0.009702937677502632
          -0.0009044104954227805 -11.797974586486816 0.009675904177129269 0.0010518883354961872 -11.796974182128906 0.009184135124087334
          -0.004380865953862667 -11.803487777709961 0.0064420090056955814 -0.002687087282538414 -11.803275108337402 0.007472270168364048
          -0.0012679500505328178 -11.80253791809082 0.00784255936741829 -0.0002682291669771075 -11.801261901855469 0.00789435114711523
          0.0011255333665758371 -11.799962997436523 0.007608022540807724 -0.0019476755987852812 -11.805299758911133 0.0036140100564807653
          -0.0009474637336097658 -11.805136680603027 0.0041772290132939816 -0.00023143926227930933 -11.804512023925781 0.004451226443052292
          0.00008810386498225853 -11.803512573242188 0.004508454818278551 0.0007453413563780487 -11.802361488342285 0.004437191411852837
          0.00010751350782811642 -11.806138038635254 0.0005841873353347182 0.0003616702160798013 -11.806238174438477 0.0007564695551991463
          0.0005896247457712889 -11.80581283569336 0.000924397143535316 0.00009404798038303852 -11.805038452148438 0.0010494970483705401
          0.00011733899009414017 -11.803788185119629 0.0011155455140396953 0.00176799891050905 -11.805924415588379 -0.0038504789117723703
          0.0012258727801963687 -11.806087493896484 -0.004080554004758596 0.0010885184165090322 -11.805974960327148 -0.004082064144313335
          -0.00035160750849172473 -11.805488586425781 -0.0039811693131923676 -0.0010448833927512169 -11.804375648498535 -0.003625440876930952
          -0.002919002901762724 -11.802530288696289 -0.004801279865205288 0.002934104995802045 -11.802610397338867 -0.004639755003154278
          0.0013217648956924677 -11.795781135559082 0.004261903930455446 -0.0049040475860238075 -11.79813003540039 0.003450996009632945
          -0.0014823313103988767 -11.802510261535645 -0.0065584806725382805 -0.0006423216545954347 -11.803080558776855 -0.007292618043720722
          0.0011535162338986993 -11.803200721740723 -0.007391531951725483 0.0021532748360186815 -11.80309009552002 -0.007261836435645819
          0.003378497436642647 -11.802449226379395 -0.006526827812194824 0.0018367388984188437 -11.797910690307617 0.005725341849029064
          0.001473062438890338 -11.800379753112793 0.004860450979322195 0.0008051875047385693 -11.802450180053711 0.0028683629352599382
          -0.00010307402408216149 -11.803560256958008 0.0005327195394784212 -0.001751529285684228 -11.803609848022461 -0.0023709903471171856
          -0.004794091917574406 -11.79762077331543 0.005391973070800304 -0.0032345629297196865 -11.796900749206543 0.006216145120561123
          -0.002094903262332082 -11.795930862426758 0.006315988954156637 -0.001327931066043675 -11.79503059387207 0.006020503118634224
          -0.00004773220280185342 -11.794530868530273 0.005475799087435007 0.0018362672999501228 -11.804909706115723 -0.0026402350049465895
          0.0000390737914131023 -11.805170059204102 -0.00021294942416716367 -0.001934217056259513 -11.804719924926758 0.0015046618646010756
          -0.003912758082151413 -11.803170204162598 0.0029982489068061113 -0.005171807948499918 -11.800739288330078 0.003949126228690147
          -0.0054360139183700085 -11.800149917602539 0.0072354162111878395 -0.0036911023780703545 -11.79958724975586 0.008362950757145882
          -0.0021668062545359135 -11.79886245727539 0.008645737543702126 -0.0009480448206886649 -11.797800064086914 0.008646536618471146
          0.0008258252055384219 -11.796924591064453 0.008149683475494385 -0.004015346057713032 -11.80301284790039 0.0058250087313354015
          -0.0025383338797837496 -11.802724838256836 0.006783052813261747 -0.0012284162221476436 -11.801974296569824 0.0071440404281020164
          -0.0002747531689237803 -11.800724983215332 0.007195615209639072 0.0009749128948897123 -11.799525260925293 0.006879371125251055
          -0.0017317620804533362 -11.80473804473877 0.00328824738971889 -0.0008559597772546113 -11.804499626159668 0.003819601144641638
          -0.00019626344146672636 -11.803837776184082 0.004085055086761713 0.00010444130748510361 -11.802838325500488 0.004147008527070284
          0.0006851796060800552 -11.801750183105469 0.004065772518515587 0.00016365875490009785 -11.805500030517578 0.00044167248415760696