<VTKFile type="UnstructuredGrid" version="1.0" byte_order="LittleEndian" header_type="UInt64">
  <UnstructuredGrid>
    <Piece NumberOfPoints="2744" NumberOfCells="11880">
      <PointData>
        <DataArray type="Float32" Name="Velocity" NumberOfComponents="3" format="ascii" RangeMin="10.925453488084978" RangeMax="12.65186035347414">
          -0.000024003287762752734 -11.079517364501953 -0.0012417070101946592 0.007687912788242102 -11.140366554260254 0.004538748413324356
          -0.009761281311511993 -11.164541244506836 0.004872209392488003 0.011008869856595993 -11.065316200256348 -0.0018283816752955317
          0.00718368124216795 -11.106180191040039 0.003866226878017187 -0.0016677752137184143 -11.090100288391113 0.00179957109503448
          -0.008301369845867157 -11.08975887298584 -0.0007736397674307227 -0.024844059720635414 -11.110719680786133 -0.005392424762248993
          0.016432220116257668 -11.119180679321289 -0.013208433985710144 -0.006691150367259979 -11.163140296936035 0.007288473658263683
          -0.002725285477936268 -11.164419174194336 0.007882134988904 0.000043680414819391444 -11.17046070098877 0.008108526468276978
          0.0026743935886770487 -11.183060646057129 0.008378380909562111 0.007409761659801006 -11.1875 0.007983846589922905
          0.004765080288052559 -11.038249969482422 0.0003466602065600455 -0.002553501632064581 -11.078600883483887 -0.0012625015806406736
          -0.005707754287868738 -11.053600311279297 0.0007797784055583179 -0.007513006217777729 -11.066300392150879 0.003938230685889721
          -0.011314786039292812 -11.107000350952148 0.0066886357963085175 -0.010026460513472557 -10.945199966430664 -0.007759694010019302
          0.020595138892531395 -10.962960243225098 -0.0071543240919709206 -0.0005108898621983826 -10.972700119018555 -0.007897325791418552
          0.00488478597253561 -10.976381301879883 -0.007901403121650219 0.009234828874468803 -10.972280502319336 -0.007426774594932795
          -0.007493807002902031 -11.065225601196289 0.010930877178907394 -0.0036677999887615442 -11.06605052947998 0.011220293119549751
          -0.0014959429390728474 -11.070650100708008 0.01168335322290659 0.0019770669750869274 -11.077750205993652 0.012148525565862656
          0.0066869002766907215 -11.07859992980957 0.011471832171082497 -0.005089552607387304 -10.99785041809082 0.007342474535107613
          -0.002330899005755782 -10.998550415039062 0.007658282294869423 -0.0014981440035626292 -11.001874923706055 0.007912039756774902
          0.002202647505328059 -11.005650520324707 0.007932025007903576 0.0031428951770067215 -11.012025833129883 0.007835780270397663
          -0.003455204889178276 -10.957125663757324 0.004039502236992121 -0.0008798314956948161 -10.959050178527832 0.004320390056818724
          -0.0009285315172746778 -10.961949348449707 0.004439637530595064 0.005630782805383205 -10.96419906616211 0.004430759698152542
          -0.004346724599599838 -10.977873802185059 0.004053790122270584 -0.000177650130353868 -10.936200141906738 0.001801373902708292
          0.0013957325136289 -10.939325332641602 0.002104446990415454 -0.0007832999108359218 -10.941900253295898 0.0023572873324155807
          0.01388926524668932 -10.94172477722168 0.002742144977673888 0.002039550803601742 -10.962775230407715 0.0017192341620102525
          0.00547915231436491 -10.93012523651123 -0.0013543583918362856 0.00395199004560709 -10.93167495727539 -0.0015132129192352295
          -0.00267637986689806 -10.932900428771973 -0.001470277551561594 0.02469787560403347 -10.92542552947998 -0.0009669725550338626
          0.00794064998626709 -10.942299842834473 -0.0019546058028936386 -0.0028664469718933105 -11.407849311828613 -0.001911845407448709
          0.0067037236876785755 -11.438141822814941 0.005863158032298088 -0.008973471820354462 -11.450830459594727 0.006540040019899607
          0.01055385172367096 -11.394890785217285 -0.0027015951927751303 0.005912088789045811 -11.419889450073242 0.005352349020540714
          -0.002889970550313592 -11.413269996643066 0.00286465254612267 -0.011218803934752941 -11.415149688720703 -0.0005212550167925656
          -0.020330732688307762 -11.436450004577637 -0.0076310401782393456 0.013720390386879444 -11.434930801391602 -0.017980311065912247
          -0.006176372058689594 -11.448339462280273 0.009561438113451004 -0.002592868637293577 -11.448610305786133 0.010504069738090038
          -0.00005636796777253039 -11.451700210571289 0.010731727816164494 0.0025959277991205454 -11.458600997924805 0.011001866310834885
          0.006374770309776068 -11.462910652160645 0.010427143424749374 0.004880336578935385 -11.379563331604004 0.00015752093167975545
          -0.0018305080011487007 -11.403599739074707 -0.0013875734293833375 -0.005182970780879259 -11.391879081726074 0.0009821532294154167
          -0.0072489576414227486 -11.399510383605957 0.005146244075149298 -0.010526485741138458 -11.420710563659668 0.008730737492442131
          -0.010627849027514458 -11.319530487060547 -0.010519595816731453 0.02037714421749115 -11.333169937133789 -0.009284766390919685
          -0.00034523598151281476 -11.341489791870117 -0.010529723949730396 0.0049361432902514935 -11.34375 -0.01044386811554432
          0.009024500846862793 -11.34080982208252 -0.0099441884085536 -0.007095281966030598 -11.395113945007324 0.01426862645894289
          -0.003451813478022814 -11.395376205444336 0.014730172231793404 -0.0012037648120895028 -11.397875785827637 0.015161514282226562
          0.002540985122323036 -11.401700019836426 0.015676449984312057 0.0059901075437664986 -11.403987884521484 0.014718316495418549
          -0.005040384829044342 -11.358537673950195 0.009761110879480839 -0.0022689332254230976 -11.358687400817871 0.010222448036074638
          -0.0010073218727484345 -11.360736846923828 0.010450541041791439 0.0028246338479220867 -11.362774848937988 0.010517336428165436
          0.0008617525454610586 -11.370275497436523 0.010088076815009117 -0.0031435610726475716 -11.33430004119873 0.005330104846507311
          -0.0008677633013576269 -11.335700035095215 0.0056907436810433865 -0.0006717494688928127 -11.337912559509277 0.005835975985974073
          0.0063403816893696785 -11.339174270629883 0.006050860043615103 -0.005633465945720673 -11.353537559509277 0.0053353398106992245
          0.0001198889221996069 -11.321462631225586 0.002249582903459668 0.0013921937206760049 -11.32433795928955 0.0025300192646682262
          -0.0009512174874544144 -11.326562881469727 0.0027049523778259754 0.014722748659551144 -11.325448989868164 0.003400040091946721
          0.0032077378127723932 -11.345962524414062 0.002544722054153681 0.005491587333381176 -11.318062782287598 -0.002152428263798356
          0.004170950967818499 -11.319725036621094 -0.0022878467570990324 -0.002435944974422455 -11.321137428283691 -0.002338056219741702
          0.024701450020074844 -11.313899993896484 -0.0015365550061687827 0.007059987634420395 -11.329324722290039 -0.00271230423822999
          -0.007084122393280268 -11.767491340637207 -0.0022343441378325224 0.005029527470469475 -11.761734008789062 0.007108062971383333
          -0.007749193347990513 -11.761730194091797 0.00808667205274105 0.009456955827772617 -11.755733489990234 -0.003451643278822303
          0.003715580329298973 -11.762070655822754 0.006991995964199305 -0.004464499652385712 -11.766870498657227 0.003984593320637941
          -0.014120293781161308 -11.770970344543457 -0.00021349887538235635 -0.01538616418838501 -11.789830207824707 -0.01008374709635973
          0.009412682615220547 -11.779290199279785 -0.02293207123875618 -0.0054151201620697975 -11.758389472961426 0.011593978852033615
          -0.0023750304244458675 -11.757451057434082 0.012844403274357319 -0.00011019309749826789 -11.757189750671387 0.013131633400917053
          0.0025225419085472822 -11.757450103759766 0.013365067541599274 0.004939655773341656 -11.761690139770508 0.012504572980105877
          0.004706093110144138 -11.754600524902344 -0.0003772649506572634 -0.0008127587498165667 -11.759591102600098 -0.001251695561222732
          -0.004175172653049231 -11.76196002960205 0.001282022218219936 -0.006544951349496841 -11.763340950012207 0.006154569331556559
          -0.009089472703635693 -11.762689590454102 0.01038033701479435 -0.010418710298836231 -11.733248710632324 -0.013288348913192749
          0.020075641572475433 -11.741819381713867 -0.010758514516055584 0.000014017988178238738 -11.748350143432617 -0.012628020718693733
          0.004912915173918009 -11.749029159545898 -0.012256691232323647 0.008371522650122643 -11.74744987487793 -0.011615021154284477
          -0.006359609309583902 -11.756375312805176 0.01692166179418564 -0.003122631460428238 -11.755900382995605 0.017749475315213203
          -0.0008054777281358838 -11.756036758422852 0.018156474456191063 0.0030919199343770742 -11.756050109863281 0.01856752671301365
          0.004654641728848219 -11.7598876953125 0.017221925780177116 -0.004675830248743296 -11.754825592041016 0.011680351570248604
          -0.0021484987810254097 -11.754487991333008 0.012421184219419956 -0.0005451452452689409 -11.75510025024414 0.012609818018972874
          0.0031619323417544365 -11.755050659179688 0.01268723700195551 -0.002188104670494795 -11.763712882995605 0.011781128123402596
          -0.0023847664706408978 -11.750537872314453 0.006341809872537851 -0.0007192360935732722 -11.751462936401367 0.006850316189229488
          -0.00046078237937763333 -11.752762794494629 0.006961958948522806 0.006005736067891121 -11.7532377243042 0.007539753336459398
          -0.007997941225767136 -11.76782512664795 0.006654383614659309 0.0006129186367616057 -11.747713088989258 0.0025111339055001736
          0.0014537011738866568 -11.750174522399902 0.002781601855531335 -0.001022708835080266 -11.751999855041504 0.002727523213252425
          0.015187403187155724 -11.750137329101562 0.00379698327742517 0.0026081500109285116 -11.769111633300781 0.003180726198479533
          0.005275510251522064 -11.74736213684082 -0.0029470399022102356 0.004442096222192049 -11.749300003051758 -0.003130955621600151
          -0.0019217776134610176 -11.750837326049805 -0.003545702900737524 0.025088075548410416 -11.743450164794922 -0.0024057028349488974
          0.005329975858330727 -11.757124900817871 -0.004293990321457386 -0.008828609250485897 -11.803351402282715 -0.0014390816213563085
          0.003834491828456521 -11.790824890136719 0.006714454386383295 -0.006965906824916601 -11.789799690246582 0.007525792811065912
          0.008250954560935497 -11.79139232635498 -0.0030719388741999865 0.0019525631796568632 -11.79442024230957 0.0070780133828520775
          -0.005382521543651819 -11.801229476928711 0.004164181649684906 -0.014156533405184746 -11.80569076538086 -0.00003056337664020248
          -0.01413070596754551 -11.820100784301758 -0.010010549798607826 0.0071938661858439445 -11.810689926147461 -0.022167079150676727
          -0.00495944544672966 -11.78683090209961 0.010673360899090767 -0.0022252979688346386 -11.78563117980957 0.011835855431854725
          -0.00005789522037957795 -11.784910202026367 0.012165363878011703 0.0024935463443398476 -11.784109115600586 0.01230444572865963
          0.004262610338628292 -11.788300514221191 0.011340145952999592 0.004187554121017456 -11.79313850402832 -0.000873794371727854
          -0.0002968131157103926 -11.795016288757324 -0.00079861975973472 -0.0033016845118254423 -11.798059463500977 0.0015623949002474546
          -0.005706044379621744 -11.797830581665039 0.005837626289576292 -0.00793678592890501 -11.794560432434082 0.00947908591479063
          -0.00878089014440775 -11.778249740600586 -0.012802088633179665 0.02056073769927025 -11.78550910949707 -0.009257294237613678
          0.0002978808188345283 -11.791780471801758 -0.01127362810075283 0.004757189191877842 -11.79242992401123 -0.010479031130671501
          0.00756397470831871 -11.791130065917969 -0.00967919360846281 -0.005734629929065704 -11.791862487792969 0.015333788469433784
          -0.0029371934942901134 -11.7911376953125 0.01642298698425293 -0.0006619602208957076 -11.790950775146484 0.01677793823182583
          0.002994558308273554 -11.790374755859375 0.01693830080330372 0.00352757447399199 -11.794337272644043 0.015481687150895596
          -0.004103763960301876 -11.795199394226074 0.010787696577608585 -0.0021035068202763796 -11.794937133789062 0.011719861999154091
          -0.0007415530271828175 -11.795312881469727 0.011880300007760525 0.002631318988278508 -11.794837951660156 0.011901279911398888
          -0.0033827906008809805 -11.803512573242188 0.010727782733738422 -0.0016985529800876975 -11.79520034790039 0.005888459738343954
          -0.0005617883871309459 -11.796175003051758 0.0064959158189594746 -0.0006345221190713346 -11.797224998474121 0.006567239761352539
          0.004655004013329744 -11.797837257385254 0.007340128533542156 -0.009193437173962593 -11.811762809753418 0.006459182593971491
          0.0009210521820932627 -11.794713020324707 0.0022074312437325716 0.0015864437445998192 -11.79692554473877 0.002475505694746971
          -0.0006800987757742405 -11.79886245727539 0.002308841096237302 0.014083778485655785 -11.797850608825684 0.003657055553048849
          -0.0006233875174075365 -11.815413475036621 0.0029277761932462454 0.004790912847965956 -11.794675827026367 -0.002843294059857726
          0.004318547900766134 -11.796688079833984 -0.0031567132100462914 -0.0014654963742941618 -11.798150062561035 -0.0038864342495799065
          0.024943169206380844 -11.790875434875488 -0.00248888717032969 0.003292098641395569 -11.804024696350098 -0.005192086100578308
          -0.009813757613301277 -11.80893325805664 -0.0007262605358846486 0.003069784492254257 -11.794548988342285 0.0061313696205616
          -0.0063382708467543125 -11.794160842895508 0.00672125956043601 0.007237723562866449 -11.796542167663574 -0.002551872516050935
          0.0006234120228327811 -11.798789978027344 0.006833298597484827 -0.006476514972746372 -11.805749893188477 0.004240315407514572
          -0.014458504505455494 -11.810580253601074 0.0003200281353201717 -0.010902469977736473 -11.821330070495605 -0.008455297909677029
          0.006745134945958853 -11.813268661499023 -0.019842952489852905 -0.004551663063466549 -11.791379928588867 0.009389124810695648
          -0.0020998360123485327 -11.790040016174316 0.01045065838843584 -0.000047131448809523135 -11.789270401000977 0.0107515137642622
          0.0024108518846333027 -11.788370132446289 0.010785593651235104 0.003894709050655365 -11.792169570922852 0.009867588058114052
          0.003788584843277931 -11.798774719238281 -0.0010506671387702227 0.00010073315934278071 -11.800200462341309 -0.00045275353477336466
          -0.002582845976576209 -11.80282974243164 0.0018395513761788607 -0.004951109178364277 -11.802069664001465 0.005551342852413654
          -0.006972163915634155 -11.798589706420898 0.008453362621366978 -0.007929490879178047 -11.784939765930176 -0.011610169894993305
          0.02064656838774681 -11.791709899902344 -0.007512376643717289 0.0004620229883585125 -11.79793930053711 -0.009651904925704002
          0.004602259956300259 -11.798739433288574 -0.008538847789168358 0.006905729882419109 -11.79757022857666 -0.007679724600166082
          -0.005200522486120462 -11.796499252319336 0.013550500385463238 -0.0027888391632586718 -11.7957124710083 0.014764863066375256
          -0.0005883356207050383 -11.795387268066406 0.015086900442838669 0.0028213101904839277 -11.794787406921387 0.015080951154232025
          0.0026841650251299143 -11.798762321472168 0.013573198579251766 -0.003625393845140934 -11.800524711608887 0.009973288513720036
          -0.0020707787480205297 -11.800275802612305 0.010996857658028603 -0.0009282048558816314 -11.800524711608887 0.011131043545901775
          0.002257630228996277 -11.79998779296875 0.011124968528747559 -0.004246971104294062 -11.80875015258789 0.009717063046991825
          -0.0013566388515755534 -11.801587104797363 0.005545753985643387 -0.0006022744928486645 -11.802536964416504 0.006218797527253628
          -0.0007753118989057839 -11.803586959838867 0.006206156220287085 0.004217982292175293 -11.80416202545166 0.00701853958889842
          -0.009364409372210503 -11.81779956817627 0.006022948771715164 0.0010898963082581758 -11.801626205444336 0.0019954503513872623
          0.001632066210731864 -11.803688049316406 0.0022454115096479654 -0.0003626712423283607 -11.805801391601562 0.0020709862001240253
          0.013183512724936008 -11.805587768554688 0.003668836085125804 -0.00262273708358407 -11.822824478149414 0.0025417262222617865
          0.004460626281797886 -11.801424026489258 -0.002559476066380739 0.004146133549511433 -11.803274154663086 -0.00294407457113266
          -0.0011788287665694952 -11.80472469329834 -0.003756551304832101 0.023985974490642548 -11.798173904418945 -0.0019958452321588993
          0.001349261961877346 -11.81102466583252 -0.005435083527117968 -0.010455016046762466 -11.809491157531738 -0.000006091315299272537
          0.002453545806929469 -11.795166969299316 0.005599430296570063 -0.00581496674567461 -11.795409202575684 0.006012889090925455
          0.0064030797220766544 -11.797408103942871 -0.0020428390707820654 -0.0002795742475427687 -11.79932975769043 0.006453259382396936
          -0.007134980522096157 -11.805990219116211 0.004134487826377153 -0.0149316918104887 -11.811110496520996 0.0005573501111939549
          -0.008185336366295815 -11.82013988494873 -0.006222414784133434 0.007074600551277399 -11.812689781188965 -0.016256753355264664
          -0.004181122872978449 -11.792749404907227 0.00825240183621645 -0.001984718721359968 -11.791339874267578 0.00923777837306261
          -0.00004918022750644013 -11.790599822998047 0.009541710838675499 0.0023021444212645292 -11.789739608764648 0.00948936678469181
          0.0036178412847220898 -11.793289184570312 0.008619380183517933 0.003486702684313059 -11.799662590026855 -0.0010369564406573772
          0.000411372835515067 -11.801024436950684 -0.0001712516968837008 -0.001983730588108301 -11.803139686584473 0.0020039852242916822
          -0.004279468674212694 -11.802270889282227 0.0052164290100336075 -0.006146161817014217 -11.799050331115723 0.0075267828069627285
          -0.008065791800618172 -11.785809516906738 -0.010183018632233143 0.01962556317448616 -11.792829513549805 -0.005830376874655485
          0.0005714811268262565 -11.798709869384766 -0.008174519054591656 0.004433675203472376 -11.799549102783203 -0.0069040595553815365
          0.006372066680341959 -11.798469543457031 -0.006028833333402872 -0.00473121227696538 -11.797025680541992 0.011938809417188168
          -0.0026490697637200356 -11.796224594116211 0.013199962675571442 -0.0005260885809548199 -11.79580020904541 0.013487976044416428
          0.0026427549310028553 -11.795249938964844 0.013357962481677532 0.0019833517726510763 -11.799287796020508 0.011868473142385483
          -0.0031997081823647022 -11.800887107849121 0.009156580083072186 -0.001956458669155836 -11.800612449645996 0.01022066455334425
          -0.0009218370541930199 -11.800800323486328 0.010299313813447952 0.0020329554099589586 -11.800326347351074 0.010275198146700859
          -0.004746462684124708 -11.808813095092773 0.008797625079751015 -0.0010974054457619786 -11.802262306213379 0.005198603495955467
          -0.0006153714493848383 -11.803150177001953 0.005908690858632326 -0.0007325814221985638 -11.80417537689209 0.005775510333478451
          0.004021977540105581 -11.804838180541992 0.006546409800648689 -0.009554820135235786 -11.8182373046875 0.005525202490389347
          0.0012017637491226196 -11.802462577819824 0.0018260673386976123 0.0016004336066544056 -11.804411888122559 0.002062617102637887
          -0.00022809000802226365 -11.806462287902832 0.0018506748601794243 0.012905670329928398 -11.806474685668945 0.003486746922135353
          -0.0032670870423316956 -11.824788093566895 0.0017803587252274156 0.004270442761480808 -11.80206298828125 -0.002169635146856308
          0.004079051315784454 -11.8037748336792 -0.002569478005170822 -0.0010024538496509194 -11.80521297454834 -0.0034391386434435844
          0.023124517872929573 -11.799087524414062 -0.001428674440830946 0.0005172751843929291 -11.812225341796875 -0.005613848567008972
          -0.010163343511521816 -11.808784484863281 0.0007822290062904358 0.0017381355864927173 -11.795567512512207 0.005085016135126352
          -0.005364350043237209 -11.795980453491211 0.005382131785154343 0.0057210312224924564 -11.797539710998535 -0.0015822554705664515
          -0.0010453035356476903 -11.799360275268555 0.006060842890292406 -0.006980632431805134 -11.805841445922852 0.004019680432975292
          -0.015185135416686535 -11.810870170593262 0.0006560449255630374 -0.008043235167860985 -11.819519996643066 -0.004628878086805344
          0.006908658891916275 -11.811590194702148 -0.012593123130500317 -0.0038607760798186064 -11.793440818786621 0.007289877627044916
          -0.001883882679976523 -11.792020797729492 0.008217492140829563 -0.00006050270894775167 -11.791319847106934 0.008518889546394348
          0.0021964956540614367 -11.790520668029785 0.008397303521633148 0.0031352273654192686 -11.794189453125 0.0075400108471512794
          0.0032420207280665636 -11.799699783325195 -0.0009133246494457126 0.0006339761312119663 -11.801074981689453 0.00007639263640157878
          -0.0014835718320682645 -11.802720069885254 0.0021088754292577505 -0.0036691867280751467 -11.801830291748047 0.004867978394031525
          -0.005472552962601185 -11.799040794372559 0.006749103777110577 -0.00808755960315466 -11.78576946258545 -0.008747967891395092
          0.01823338493704796 -11.792909622192383 -0.004387361463159323 0.0006180413765832782 -11.798540115356445 -0.006908544339239597
          0.0042419759556651115 -11.799360275268555 -0.005545838735997677 0.00590871088206768 -11.798379898071289 -0.004700454883277416
          -0.00430919649079442 -11.79698657989502 0.010570507496595383 -0.0025286420714110136 -11.796112060546875 0.011801136657595634
          -0.0004989061853848398 -11.7957124710083 0.011978061869740486 0.0024440670385956764 -11.795212745666504 0.011758837848901749
          0.0012916179839521646 -11.799287796020508 0.010425621643662453 -0.0027916007675230503 -11.800400733947754 0.00837000459432602
          -0.0018013432854786515 -11.800137519836426 0.009446178562939167 -0.0008535149390809238 -11.800337791442871 0.00945444218814373
          0.0018398070242255926 -11.79993724822998 0.009404006414115429 -0.004875303711742163 -11.807687759399414 0.007982946932315826
          -0.0007954144384711981 -11.801876068115234 0.004853156395256519 -0.0004972867318429053 -11.802712440490723 0.0055572339333593845
          -0.0005743129877373576 -11.803586959838867 0.00541039789095521 0.003928791265934706 -11.804362297058105 0.006130381487309933
          -0.009687626734375954 -11.817462921142578 0.004914201330393553 0.0012846087338402867 -11.802200317382812 0.0017212512902915478
          0.0015761211980134249 -11.804012298583984 0.0019152621971443295 -0.0001055487955454737 -11.805886268615723 0.0017113321227952838
          0.012663980945944786 -11.806036949157715 0.003324350342154503 -0.0034946994855999947 -11.825362205505371 0.00100120366550982
          0.00404750369489193 -11.80162525177002 -0.0017682674806565046 0.003927113488316536 -11.803175926208496 -0.002168127568438649
          -0.0008929288014769554 -11.804600715637207 -0.003040826413780451 0.02223397232592106 -11.79886245727539 -0.0008676607394590974
          0.00028335023671388626 -11.812298774719238 -0.005490977317094803 -0.009460578672587872 -11.808375358581543 0.0013680718839168549
          0.0011696129804477096 -11.79590892791748 0.004611638840287924 -0.004977517295628786 -11.796380043029785 0.004843645263463259
          0.0051623801700770855 -11.797541618347168 -0.0011644501937553287 -0.0016660180408507586 -11.799269676208496 0.005685901269316673
          -0.006872334983199835 -11.80582046508789 0.0039381119422614574 -0.015208420343697071 -11.810510635375977 0.0009178666514344513
          -0.008158664219081402 -11.818119049072266 -0.003665375057607889 0.006295621395111084 -11.810169219970703 -0.010129277594387531
          -0.0035829872358590364 -11.793939590454102 0.006491991225630045 -0.0017905427375808358 -11.792509078979492 0.007350399158895016
          -0.00007726741023361683 -11.791830062866211 0.007610339671373367 0.0021235919557511806 -11.791109085083008 0.007465053349733353
          0.002757868729531765 -11.794858932495117 0.006647130008786917 0.00303877261467278 -11.799574851989746 -0.000729633029550314
          0.0008000474772416055 -11.800949096679688 0.0002867053262889385 -0.0010672957869246602 -11.802209854125977 0.002157260198146105
          -0.003133503021672368 -11.80133056640625 0.00452549010515213 -0.004901980981230736 -11.798959732055664 0.006059686187654734
          -0.007670639548450708 -11.786209106445312 -0.007436824031174183 0.016959208995103836 -11.792829513549805 -0.0031473517883569
          0.0006482030148617923 -11.798240661621094 -0.005801030900329351 0.004051443189382553 -11.79900074005127 -0.0044237966649234295
          0.005495757795870304 -11.79811954498291 -0.0036399438977241516 -0.003931226208806038 -11.796875 0.009387546218931675
          -0.002405273960903287 -11.79592514038086 0.010562893003225327 -0.00048722015344537795 -11.795612335205078 0.0106728570535779
          0.0022314502857625484 -11.795186996459961 0.010385381057858467 0.0006748525192961097 -11.799200057983398 0.009218967519700527
          -0.0024254098534584045 -11.799824714660645 0.0076378765515983105 -0.001645806827582419 -11.799575805664062 0.008698784746229649
          -0.0007377319852821529 -11.799838066101074 0.008643737994134426 0.001691749901510775 -11.799537658691406 0.008553246036171913
          -0.005101880058646202 -11.806787490844727 0.007173765916377306 -0.0005298136966302991 -11.801313400268555 0.004534353502094746
          -0.00037827639607712626 -11.802099227905273 0.005212114192545414 -0.0004118800861760974 -11.802837371826172 0.005045411642640829
          0.0038396427407860756 -11.803736686706543 0.005704167298972607 -0.00967375747859478 -11.816513061523438 0.004272477235645056
          0.0013504561502486467 -11.801737785339355 0.0016585768898949027 0.001556728733703494 -11.803413391113281 0.001805911655537784
          -0.00003780127735808492 -11.805062294006348 0.001614876789972186 0.012336939573287964 -11.805313110351562 0.0031634115148335695
          -0.0037254001945257187 -11.824475288391113 0.00041261466685682535 0.003852705005556345 -11.80106258392334 -0.0013913842849433422
          0.00377087015658617 -11.802450180053711 -0.0017787471879273653 -0.0007992812898010015 -11.803799629211426 -0.0026203407905995846
          0.021359071135520935 -11.798412322998047 -0.00034482963383197784 0.000016913283616304398 -11.811624526977539 -0.005122183356434107
          -0.008697680197656155 -11.807991981506348 0.0018137317383661866 0.0007958489004522562 -11.796099662780762 0.004200935363769531
          -0.004644562490284443 -11.796680450439453 0.004371633753180504 0.00470435107126832 -11.797533988952637 -0.0007931143045425415
          -0.002143479883670807 -11.79911994934082 0.005318338517099619 -0.0072133601643145084 -11.805370330810547 0.0038634252268821
          -0.01515200175344944 -11.810070037841797 0.0011978086549788713 -0.008004603907465935 -11.816980361938477 -0.0030871450435370207
          0.005671350751072168 -11.808769226074219 -0.008302295580506325 -0.0033579401206225157 -11.794349670410156 0.005821711383759975
          -0.0017159983981400728 -11.792949676513672 0.006628888193517923 -0.00009106819197768345 -11.792259216308594 0.006833808030933142
          0.0020451664458960295 -11.791608810424805 0.006660959683358669 0.0025468042585998774 -11.795289993286133 0.005901677068322897
          0.0028716102242469788 -11.799413681030273 -0.0005228403024375439 0.0009388653561472893 -11.800750732421875 0.00045714000589214265
          -0.0007257038960233331 -11.801739692687988 0.0021699205972254276 -0.0026845685206353664 -11.80090045928955 0.004213106818497181
          -0.004414896015077829 -11.798869132995605 0.005457266699522734 -0.007121880538761616 -11.78678035736084 -0.006278140004724264
          0.01616612821817398 -11.792889595031738 -0.002088923007249832 0.0006959409802220762 -11.79793930053711 -0.004830837249755859
          0.003869070205837488 -11.798660278320312 -0.0034944459330290556 0.005147022195160389 -11.797869682312012 -0.002781272167339921
          -0.0035794286523014307 -11.796749114990234 0.008357138372957706 -0.002252758014947176 -11.79574966430664 0.009442119859158993
          -0.000461751245893538 -11.795462608337402 0.009526020847260952 0.0020310869440436363 -11.795125961303711 0.009214509278535843
          0.00018119753804057837 -11.799074172973633 0.008200938813388348 -0.002117536962032318 -11.799337387084961 0.0069791837595403194
          -0.0015142298070713878 -11.79902458190918 0.007989210076630116 -0.0006409017369151115 -11.799312591552734 0.007894034497439861
          0.0015470744110643864 -11.799123764038086 0.007771622855216265 -0.00539614912122488 -11.806124687194824 0.006444211583584547
          -0.0003083244082517922 -11.800749778747559 0.004243962466716766 -0.00029141403501853347 -11.801461219787598 0.00487951235845685
          -0.00032263901084661484 -11.802148818969727 0.0046870773658156395 0.003683180082589388 -11.803200721740723 0.00527948746457696
          -0.009649030864238739 -11.815587043762207 0.0036833989433944225 0.0014205363113433123 -11.801212310791016 0.0016131475567817688
          0.0015481937443837523 -11.802787780761719 0.0017301783664152026 0.000009249983122572303 -11.80424976348877 0.0015423477161675692