<VTKFile type="UnstructuredGrid" version="1.0" byte_order="LittleEndian" header_type="UInt64">
  <UnstructuredGrid>
    <Piece NumberOfPoints="2744" NumberOfCells="11880">
      <PointData>
        <DataArray type="Float32" Name="Velocity" NumberOfComponents="3" format="ascii" RangeMin="10.922082974931486" RangeMax="12.651959634705413">
          -0.002964181127026677 -11.088333129882812 -0.0022019215393811464 -0.007698234170675278 -11.084200859069824 -0.003507214831188321
          0.01043888833373785 -11.159939765930176 0.0034915469586849213 -0.004143717233091593 -11.123000144958496 0.0038209210615605116
          0.011664919555187225 -11.110319137573242 0.00592064019292593 0.007958403788506985 -11.07274055480957 0.004237488377839327
          0.003948652185499668 -11.050359725952148 0.0020115200895816088 0.002652698429301381 -11.048680305480957 -0.0005224579945206642
          -0.0005970345810055733 -11.056680679321289 -0.0025441639591008425 -0.003263109130784869 -11.133020401000977 0.007914641872048378
          -0.0019336016848683357 -11.146940231323242 0.007873596623539925 0.00004788722799276002 -11.144340515136719 0.0075318701565265656
          0.0015644680242985487 -11.143980026245117 0.007137914188206196 0.005396655760705471 -11.149518966674805 0.006407569162547588
          -0.018814200535416603 -11.118598937988281 -0.00943614263087511 0.01861603930592537 -11.105560302734375 -0.0011298280442133546
          0.011034478433430195 -11.0862398147583 -0.001171502168290317 0.003170262323692441 -11.084500312805176 0.0009984862990677357
          -0.005972684361040592 -11.097399711608887 0.0030842688865959644 -0.00409075990319252 -10.961359977722168 -0.006611581891775131
          -0.002466356148943305 -10.961959838867188 -0.005706020165234804 0.0006397319957613945 -10.961299896240234 -0.005500572267919779
          -0.022033240646123886 -10.956180572509766 -0.005373569671064615 0.012644919566810131 -10.943778991699219 -0.008225088939070702
          -0.004996550269424915 -11.042474746704102 0.00925857201218605 -0.004378119483590126 -11.053050994873047 0.010177934542298317
          -0.0000935529824346304 -11.054774284362793 0.010060464963316917 0.00141217652708292 -11.054450035095215 0.010081024840474129
          0.006789837498217821 -11.058349609375 0.009994905441999435 -0.0014320577029138803 -10.992650985717773 0.00589065533131361
          -0.004366759210824966 -10.995100021362305 0.006693070288747549 0.0010159506928175688 -10.99625015258789 0.006987635046243668
          0.0017449276056140661 -10.993624687194824 0.007020062301307917 0.005074622575193644 -10.993499755859375 0.007026787381619215
          0.006084850057959557 -10.968299865722656 0.002944762585684657 -0.00590019766241312 -10.958925247192383 0.003925837576389313
          0.0014597850386053324 -10.958849906921387 0.004159600008279085 0.0008469924796372652 -10.955974578857422 0.004071217495948076
          0.0033074775710701942 -10.955175399780273 0.004002294968813658 -0.0004273243248462677 -10.95777416229248 0.0009172474965453148
          -0.01568807289004326 -10.93857479095459 0.0021657494362443686 0.0014648328069597483 -10.93997573852539 0.0019173042383044958
          -0.0008712192066013813 -10.936925888061523 0.0019746096804738045 0.002129040425643325 -10.936149597167969 0.001983272610232234
          -0.007033824920654297 -10.938425064086914 -0.0024989100638777018 -0.027012279257178307 -10.922049522399902 -0.0010384130291640759
          0.002972362795844674 -10.930874824523926 -0.0011761407367885113 -0.0020649742800742388 -10.927925109863281 -0.0009875001851469278
          -0.0008554869564250112 -10.927425384521484 -0.000991732464171946 -0.0017788534751161933 -11.413707733154297 -0.003070130944252014
          -0.007167657371610403 -11.404376029968262 -0.004343953914940357 0.009533132426440716 -11.44789981842041 0.004720272962003946
          -0.003611956490203738 -11.429841041564941 0.005120187532156706 0.01084393821656704 -11.421699523925781 0.007777173072099686
          0.007609616033732891 -11.401790618896484 0.005520275793969631 0.003776783123612404 -11.389379501342773 0.0025128622073680162
          0.0022635185159742832 -11.388429641723633 -0.0008326629176735878 -0.0009942451724782586 -11.391070365905762 -0.0033460999839007854
          -0.0032665827311575413 -11.434549331665039 0.010508029721677303 -0.0019056290620937943 -11.440900802612305 0.010587102733552456
          0.00009389877959620208 -11.43871021270752 0.01015316229313612 0.0015392841305583715 -11.43773078918457 0.009604306891560555
          0.005019842181354761 -11.440600395202637 0.008485978469252586 -0.014859420247375965 -11.43589973449707 -0.013971688225865364
          0.019375666975975037 -11.43239974975586 -0.003188877133652568 0.012966087087988853 -11.412450790405273 -0.0007124320836737752
          0.0037238404620438814 -11.410770416259766 0.0018774777418002486 -0.005066983867436647 -11.416729927062988 0.00421063881367445
          -0.004070385359227657 -11.333990097045898 -0.008405732922255993 -0.0024652848951518536 -11.334589958190918 -0.007596281822770834
          0.0008420139783993363 -11.334268569946289 -0.0075463601388037205 -0.023049386218190193 -11.329339027404785 -0.006999877747148275
          0.011322439648211002 -11.318018913269043 -0.011178595945239067 -0.004599751904606819 -11.385686874389648 0.012000186368823051
          -0.0039909156039357185 -11.389975547790527 0.013270443305373192 -0.00012199605407658964 -11.390087127685547 0.013108382001519203
          0.001356881926767528 -11.389062881469727 0.013155399821698666 0.0064094653353095055 -11.390674591064453 0.013069402426481247
          0.00008900405373424292 -11.360549926757812 0.007729886565357447 -0.004585355054587126 -11.358312606811523 0.008843372575938702
          0.0005892557092010975 -11.35830020904541 0.009138324297964573 0.0015127994120121002 -11.355825424194336 0.009265819564461708
          0.0049685463309288025 -11.355074882507324 0.009292676113545895 0.006454087793827057 -11.348313331604004 0.0042239162139594555
          -0.007404710631817579 -11.337013244628906 0.005223718471825123 0.0010233594803139567 -11.336700439453125 0.005425562150776386
          0.0007205376168712974 -11.333887100219727 0.005393375176936388 0.003177242586389184 -11.332661628723145 0.005180832464247942
          -0.0011052126064896584 -11.342948913574219 0.0014570287894457579 -0.016703056171536446 -11.323862075805664 0.00272317323833704
          0.001380362780764699 -11.325700759887695 0.0023306519724428654 -0.0008592007216066122 -11.322538375854492 0.002437038579955697
          0.0017642178572714329 -11.321337699890137 0.0022829740773886442 -0.006311438046395779 -11.327037811279297 -0.003829056164249778
          -0.026935217902064323 -11.311186790466309 -0.001539501827210188 0.0030127097852528095 -11.319662094116211 -0.0019263806752860546
          -0.0020854338072240353 -11.31661319732666 -0.0015933963004499674 -0.001049441285431385 -11.3157377243042 -0.0016419599996879697
          0.0015378911048173904 -11.769325256347656 -0.0035517653450369835 -0.006166118662804365 -11.754875183105469 -0.00473830895498395
          0.007989533245563507 -11.760969161987305 0.0059088789857923985 -0.002520672744140029 -11.763558387756348 0.006320768501609564
          0.009350085631012917 -11.761159896850586 0.009260945953428745 0.006885190960019827 -11.761280059814453 0.0065546100959181786
          0.003481522900983691 -11.760629653930664 0.0029343408532440662 0.001620605355128646 -11.76060962677002 -0.0010547403944656253
          -0.0014488783199340105 -11.757429122924805 -0.0038364375941455364 -0.0030126310884952545 -11.762969017028809 0.012612590566277504
          -0.0018361632246524096 -11.760859489440918 0.01287776231765747 0.00012782870908267796 -11.75908088684082 0.01241991389542818
          0.0014396316837519407 -11.757519721984863 0.011759511195123196 0.004368154797703028 -11.75745964050293 0.010302944108843803
          -0.009340421296656132 -11.782569885253906 -0.019771981984376907 0.018638975918293 -11.788570404052734 -0.006627032998949289
          0.014327054843306541 -11.770190238952637 -0.00024068201310001314 0.004240128211677074 -11.7678804397583 0.002764287171885371
          -0.0033731714356690645 -11.764589309692383 0.005470924079418182 -0.00397886335849762 -11.745359420776367 -0.009519929997622967
          -0.0025098209735006094 -11.746150016784668 -0.00899759866297245 0.0009137430461123586 -11.74622917175293 -0.009278141893446445
          -0.023619206622242928 -11.741619110107422 -0.008156070485711098 0.010022049769759178 -11.731269836425781 -0.014044578187167645
          -0.0035935346968472004 -11.762036323547363 0.014111594296991825 -0.003672026563435793 -11.759075164794922 0.01581713929772377
          -0.00019970342691522092 -11.757624626159668 0.015767524018883705 0.0012660493375733495 -11.755786895751953 0.015772875398397446
          0.00571083277463913 -11.754799842834473 0.0155107993632555 0.0017946241423487663 -11.765450477600098 0.00918331928551197
          -0.004856070037931204 -11.757850646972656 0.010790023021399975 0.00025999569334089756 -11.756637573242188 0.011036922223865986
          0.00125795544590801 -11.754236221313477 0.011191497556865215 0.004650992341339588 -11.75266170501709 0.01110649574548006
          0.0067566875368356705 -11.767912864685059 0.005526273511350155 -0.008365945890545845 -11.75461196899414 0.006556105334311724
          0.0006975014694035053 -11.753811836242676 0.006504589691758156 0.0005964635056443512 -11.751099586486816 0.00660185469314456
          0.0028644863050431013 -11.74943733215332 0.0061916387639939785 -0.000813688151538372 -11.769250869750977 0.0021336213685572147
          -0.01705971732735634 -11.750399589538574 0.0031764828599989414 0.0012251625303179026 -11.752388000488281 0.002464612014591694
          -0.000820344255771488 -11.749198913574219 0.002774727065116167 0.0011989542981609702 -11.747511863708496 0.002434768481180072
          -0.0043121385388076305 -11.758600234985352 -0.0056000035256147385 -0.02644778974354267 -11.742112159729004 -0.002220264170318842
          0.0029160422272980213 -11.749974250793457 -0.002943179104477167 -0.0020972543861716986 -11.746899604797363 -0.002321316860616207
          -0.001267142128199339 -11.745536804199219 -0.0023657989222556353 0.00432089576497674 -11.80395793914795 -0.00262448494322598
          -0.005305731203407049 -11.789633750915527 -0.003835952142253518 0.00685448432341218 -11.789739608764648 0.005488141439855099
          -0.001488185953348875 -11.79403305053711 0.005987618118524551 0.008113333955407143 -11.792959213256836 0.008377138525247574
          0.006141494028270245 -11.795709609985352 0.006076958030462265 0.0031954050064086914 -11.797160148620605 0.0027907658368349075
          0.0011421031085774302 -11.797419548034668 -0.0007809820817783475 -0.0015870928764343262 -11.793828964233398 -0.0031953598372638226
          -0.0024835201911628246 -11.793619155883789 0.01133663672953844 -0.0017493407940492034 -11.790510177612305 0.011704551056027412
          0.00009002821752801538 -11.78877067565918 0.011374130845069885 0.0012813382782042027 -11.787320137023926 0.01078953966498375
          0.0038361134938895702 -11.787019729614258 0.009378504939377308 -0.007299435790628195 -11.814661026000977 -0.020861832424998283
          0.015568481758236885 -11.82097053527832 -0.008375829085707664 0.013713186606764793 -11.806119918823242 0.00016220577526837587
          0.004454324021935463 -11.802909851074219 0.002916827332228422 -0.002153182402253151 -11.797459602355957 0.005560952238738537
          -0.003828416345641017 -11.78989028930664 -0.007871652022004128 -0.002623242326080799 -11.790899276733398 -0.0077540939673781395
          0.0006134019349701703 -11.791068077087402 -0.008376761339604855 -0.023273233324289322 -11.786169052124023 -0.006920661777257919
          0.00939703918993473 -11.775879859924316 -0.013281084597110748 -0.002608564216643572 -11.79956340789795 0.012758164666593075
          -0.003652370534837246 -11.795475006103516 0.014539300464093685 -0.00023265447816811502 -11.794062614440918 0.014695911668241024
          0.0011998012196272612 -11.792149543762207 0.014618773944675922 0.0050997016951441765 -11.790849685668945 0.014054562896490097
          0.002280950080603361 -11.807487487792969 0.008486232720315456 -0.004614458419382572 -11.799137115478516 0.01031447947025299
          0.0005689115496352315 -11.797812461853027 0.010514733381569386 0.0013417459558695555 -11.79536247253418 0.010587075725197792
          0.004281988833099604 -11.793588638305664 0.010255370289087296 0.007351310923695564 -11.81352424621582 0.0054667615331709385
          -0.006775212474167347 -11.800236701965332 0.006517126690596342 0.0010489848209545016 -11.798774719238281 0.006139675620943308
          0.0007245998713187873 -11.796087265014648 0.00629902770742774 0.0025672113988548517 -11.794412612915039 0.00579526461660862
          0.0014782370999455452 -11.817062377929688 0.0022179237566888332 -0.015330446884036064 -11.798500061035156 0.003123556263744831
          0.0010844261851161718 -11.799412727355957 0.0020254203118383884 -0.0008211538661271334 -11.796323776245117 0.0025176473427563906
          0.0008286429801955819 -11.794550895690918 0.0021538042929023504 -0.0025106878019869328 -11.807387351989746 -0.006131045054644346
          -0.025976018980145454 -11.79010009765625 -0.0022073376458138227 0.002541486406698823 -11.797574043273926 -0.003226813394576311
          -0.0021572380792349577 -11.794599533081055 -0.002371039940044284 -0.0013844098430126905 -11.793074607849121 -0.002354287076741457
          0.006185608450323343 -11.809290885925293 -0.0015647349646314979 -0.004621268715709448 -11.794991493225098 -0.002981344470754266
          0.005977506283670664 -11.794361114501953 0.004827432334423065 -0.0006341750267893076 -11.798308372497559 0.005523029714822769
          0.007081205956637859 -11.797320365905762 0.007373782806098461 0.005459645763039589 -11.800210952758789 0.005608249921351671
          0.002881803782656789 -11.801990509033203 0.002675445284694433 0.0007419605390168726 -11.802411079406738 -0.00046846098848618567
          -0.0017757061868906021 -11.798949241638184 -0.002573999110609293 -0.001972374739125371 -11.798179626464844 0.009844521060585976
          -0.001653800019994378 -11.79500961303711 0.010266664437949657 0.00003984337308793329 -11.793350219726562 0.010046188719570637
          0.001121995272114873 -11.792019844055176 0.009521936997771263 0.0033608549274504185 -11.791820526123047 0.008165017701685429
          -0.0071441107429564 -11.816760063171387 -0.019441407173871994 0.011132454499602318 -11.822750091552734 -0.007911023683845997
          0.013774430379271507 -11.811240196228027 0.0007596175419166684 0.004974208772182465 -11.80762004852295 0.0031280419789254665
          -0.0012888654600828886 -11.802411079406738 0.005408328026533127 -0.003665537340566516 -11.796709060668945 -0.006093611940741539
          -0.0026901697274297476 -11.797719955444336 -0.006322386674582958 0.0003775029326789081 -11.797948837280273 -0.007261163089424372
          -0.022801483049988747 -11.792709350585938 -0.0054227570071816444 0.008774200454354286 -11.782509803771973 -0.011779466643929482
          -0.0019279281841591 -11.804624557495117 0.011294230818748474 -0.003485947847366333 -11.800361633300781 0.013013074174523354
          -0.00020336260786280036 -11.79886245727539 0.013259788043797016 0.0011352167930454016 -11.797025680541992 0.013155076652765274
          0.004566516261547804 -11.795775413513184 0.012383988127112389 0.0030906260944902897 -11.812999725341797 0.007778106722980738
          -0.003854162059724331 -11.804688453674316 0.009681547991931438 0.0008337437175214291 -11.803324699401855 0.00989430584013462
          0.0014635729603469372 -11.800911903381348 0.009944237768650055 0.003962700255215168 -11.799150466918945 0.0094233313575387
          0.008168741129338741 -11.820324897766113 0.005199688486754894 -0.005299818702042103 -11.807199478149414 0.006370718590915203
          0.0013572463067248464 -11.805312156677246 0.005879076663404703 0.0008774576708674431 -11.8026123046875 0.005956217646598816
          0.0023732688277959824 -11.800912857055664 0.005375369917601347 0.0029419753700494766 -11.824999809265137 0.0018275761976838112
          -0.014254898764193058 -11.806474685668945 0.0031934387516230345 0.0009852960938587785 -11.806387901306152 0.0017996339593082666
          -0.0008404049440287054 -11.803337097167969 0.002293997211381793 0.0005466334987431765 -11.801538467407227 0.001929568126797676
          -0.0014244494959712029 -11.813875198364258 -0.006263089366257191 -0.025584736838936806 -11.797362327575684 -0.001734960125759244
          0.0021797548979520798 -11.804524421691895 -0.0031996923498809338 -0.0022061096969991922 -11.801612854003906 -0.0021345114801079035
          -0.0016069274861365557 -11.800012588500977 -0.0020969794131815434 0.0076557244174182415 -11.809574127197266 -0.0004169158637523651
          -0.004099566489458084 -11.796199798583984 -0.002253162208944559 0.005300135351717472 -11.795720100402832 0.00430023018270731
          0.00006897168350405991 -11.799175262451172 0.00508367083966732 0.006226054392755032 -11.79811954498291 0.006484378129243851
          0.004837092012166977 -11.800689697265625 0.005138227250427008 0.0025413010735064745 -11.802419662475586 0.0025504613295197487
          0.00045911656343378127 -11.80289077758789 -0.00021275118342600763 -0.0018843112047761679 -11.79966926574707 -0.0020045835990458727
          -0.001512742368504405 -11.799280166625977 0.008555268868803978 -0.001553838374093175 -11.796209335327148 0.008995963260531425
          -0.000003249496558055398 -11.7946195602417 0.008866827003657818 0.0009768357267603278 -11.793379783630371 0.00839676707983017
          0.002957141026854515 -11.793270111083984 0.007136997766792774 -0.007713450584560633 -11.81470012664795 -0.015960630029439926
          0.007809032686054707 -11.821760177612305 -0.006317625287920237 0.014027692377567291 -11.81195068359375 0.0010135779157280922
          0.0053076669573783875 -11.807821273803711 0.003223742125555873 -0.0005047351587563753 -11.803091049194336 0.005181706976145506
          -0.0034906063228845596 -11.797869682312012 -0.004646682180464268 -0.0026559922844171524 -11.798830032348633 -0.005085733253508806
          0.0002925920707639307 -11.799099922180176 -0.0062619163654744625 -0.021565284579992294 -11.794059753417969 -0.004043108783662319
          0.009027340449392796 -11.783400535583496 -0.010198136791586876 -0.0012846288736909628 -11.805274963378906 0.009958789683878422
          -0.00326979486271739 -11.80101203918457 0.011556003242731094 -0.00017971958732232451 -11.79942512512207 0.011843487620353699
          0.0010701741557568312 -11.797662734985352 0.011723862960934639 0.004126652609556913 -11.796536445617676 0.010848495177924633
          0.0035377363674342632 -11.812912940979004 0.007026860024780035 -0.0033102810848504305 -11.80516242980957 0.008974582888185978
          0.0008923077839426696 -11.803800582885742 0.009212861768901348 0.0014662938192486763 -11.801424980163574 0.00923283863812685
          0.0036331189330667257 -11.799736976623535 0.00858617015182972 0.008323661051690578 -11.82087516784668 0.004652286414057016
          -0.004830377176403999 -11.808024406433105 0.00613369420170784 0.0014061399269849062 -11.806074142456055 0.005669665057212114
          0.0009002095903269947 -11.803387641906738 0.005664343014359474 0.002176818437874317 -11.801674842834473 0.005014446564018726
          0.0031553376466035843 -11.827237129211426 0.00108196004293859 -0.014053193852305412 -11.807587623596191 0.0031811685767024755
          0.0009151974227279425 -11.807212829589844 0.0016613302286714315 -0.0008197402348741889 -11.804237365722656 0.002135427203029394
          0.000339425983838737 -11.802449226379395 0.0017783676739782095 -0.0009324252605438232 -11.813725471496582 -0.0061453040689229965
          -0.024722151458263397 -11.798462867736816 -0.0011926840525120497 0.0019826400093734264 -11.805261611938477 -0.0030535722617059946
          -0.0021444540470838547 -11.802437782287598 -0.001829941407777369 -0.0017616578843444586 -11.800837516784668 -0.001745726098306477
          0.007728958036750555 -11.808558464050293 0.000572509306948632 -0.003686945652589202 -11.796600341796875 -0.001640697824768722
          0.004741958808153868 -11.796420097351074 0.0038526568096131086 0.000702887075021863 -11.79955768585205 0.004660079255700111
          0.005507847294211388 -11.79833984375 0.005738901440054178 0.00425209105014801 -11.800549507141113 0.0046871015802025795
          0.0021816410589963198 -11.802129745483398 0.0024110840167850256 0.000245706585701555 -11.802579879760742 0.000035364362702239305
          -0.001884798752143979 -11.799630165100098 -0.0014958289684727788 -0.001042283489368856 -11.799850463867188 0.007468788884580135
          -0.0014544592704623938 -11.79680061340332 0.007921161130070686 -0.000042350893636466935 -11.795260429382324 0.007879743352532387
          0.0008407488348893821 -11.794078826904297 0.007479649968445301 0.0026052985340356827 -11.79403018951416 0.006288317032158375
          -0.007623779587447643 -11.812471389770508 -0.012251248583197594 0.007196194026619196 -11.821619987487793 -0.005058175418525934
          0.014129899442195892 -11.811761856079102 0.001035985304042697 0.005462440196424723 -11.807180404663086 0.003273317124694586
          0.00017375587776768953 -11.803110122680664 0.00494317477568984 -0.003306720871478319 -11.797969818115234 -0.0034984250087291002
          -0.002570801880210638 -11.798879623413086 -0.004056175239384174 0.0002741680946201086 -11.799169540405273 -0.0053747971542179585
          -0.0202378761023283 -11.794389724731445 -0.0028313593938946724 0.009124981239438057 -11.783440589904785 -0.008721522986888885
          -0.0006115100113674998 -11.805150985717773 0.00886065699160099 -0.002978702075779438 -11.800925254821777 0.010305842384696007
          -0.0001484454987803474 -11.799312591552734 0.010573150590062141 0.0010080717038363218 -11.797599792480469 0.010431429371237755
          0.0037392762023955584 -11.796637535095215 0.009538793936371803 0.003334851237013936 -11.8118257522583 0.006360815837979317
          -0.003336335765197873 -11.804849624633789 0.008234957233071327 0.0008590323850512505 -11.803424835205078 0.008506594225764275
          0.0014285407960414886 -11.801063537597656 0.008525846526026726 0.00332094868645072 -11.799488067626953 0.007807477377355099
          0.00801096111536026 -11.820162773132324 0.003943655174225569 -0.004938406404107809 -11.807737350463867 0.0058014485985040665
          0.001337028224952519 -11.80573844909668 0.005401499569416046 0.0008713329443708062 -11.803088188171387 0.005358426366001368
          0.0019504236988723278 -11.801412582397461 0.004669192712754011 0.0034052617847919464 -11.827937126159668 0.00038033153396099806
          -0.01354976650327444 -11.807287216186523 0.003144704969599843 0.0008571208454668522 -11.806787490844727 0.001572401961311698
          -0.0007958686910569668 -11.803950309753418 0.0020121950656175613 0.0001668828772380948 -11.802212715148926 0.0016737193800508976
          -0.0006834631785750389 -11.812601089477539 -0.005796106997877359 -0.023528585210442543 -11.79838752746582 -0.0007175253704190254
          0.001856266288086772 -11.804786682128906 -0.00282062916085124 -0.0020443995017558336 -11.80210018157959 -0.0015223923837766051
          -0.001789834350347519 -11.800562858581543 -0.001378249260596931 0.007278608623892069 -11.80800724029541 0.0011548814363777637
          -0.003355056047439575 -11.7968168258667 -0.001130954478867352 0.004256253130733967 -11.796930313110352 0.0034812591038644314
          0.0012017701519653201 -11.799765586853027 0.004264699295163155 0.004891136195510626 -11.798430442810059 0.005091587547212839
          0.0037482730112969875 -11.80029010772705 0.004274546168744564 0.00187042192555964 -11.801729202270508 0.002291781362146139
          0.000051116592658217996 -11.802199363708496 0.0002378071949351579 -0.00188513845205307 -11.799489974975586 -0.0010683933505788445
          -0.0006531905382871628 -11.800200462341309 0.0065642474219202995 -0.001361846225336194 -11.797220230102539 0.0070235272869467735
          -0.00007823140185791999 -11.795740127563477 0.007050069980323315 0.0007164019625633955 -11.794610977172852 0.00670309504494071
          0.002292488468810916 -11.794610977172852 0.00558967050164938 -0.006887231953442097 -11.810909271240234 -0.009726311080157757
          0.006943792104721069 -11.82055950164795 -0.004252965096384287 0.014005817472934723 -11.811419486999512 0.0009685309487394989
          0.00569053553044796 -11.806730270385742 0.003278665943071246 0.0007415871368721128 -11.802969932556152 0.004705258645117283
          -0.003129085060209036 -11.797900199890137 -0.002577868988737464 -0.0024576648138463497 -11.798749923706055 -0.0031926941592246294
          0.000280285079497844 -11.799051284790039 -0.0045820679515600204 -0.018840942531824112 -11.794549942016602 -0.0017669961089268327
          0.008872149512171745 -11.784040451049805 -0.007350510451942682 -0.000032168696634471416 -11.804911613464355 0.007933393120765686
          -0.0026855466421693563 -11.800750732421875 0.009190407581627369 -0.00010755340190371498 -11.799150466918945 0.00943458266556263
          0.0009404270676895976 -11.797513961791992 0.009292975068092346 0.0033817426301538944 -11.796662330627441 0.008404549211263657
          0.0032667876221239567 -11.811012268066406 0.005774421151727438 -0.003381761023774743 -11.804412841796875 0.007505923975259066
          0.0008128557237796485 -11.802950859069824 0.007795883342623711 0.0013713216176256537 -11.8006010055542 0.007841610349714756
          0.0030455763917416334 -11.799099922180176 0.007097829133272171 0.007019073236733675 -11.819025039672852 0.003283499041572213
          -0.005618293769657612 -11.806962966918945 0.005434178747236729 0.0012376199010759592 -11.80516242980957 0.005095466505736113
          0.0008153485832735896 -11.802574157714844 0.005031776614487171 0.0017475287895649672 -11.80093765258789 0.004341667518019676
          0.0035720495507121086 -11.826974868774414 -0.00014429469592869282 -0.013169855810701847 -11.80663776397705 0.0030687875114381313
          0.0007891287095844746 -11.806112289428711 0.0015179985202848911 -0.0007727986085228622 -11.803437232971191 0.00191683869343251
          0.0000299840176012367 -11.801749229431152 0.0016018868191167712 0.00035171257331967354 -11.812050819396973 -0.005335697438567877
          -0.02183849923312664 -11.798349380493164 -0.00029272501706145704 0.0017468176083639264 -11.804149627685547 -0.002525561721995473
          -0.0019218421075493097 -11.80161190032959 -0.001196367433294654 -0.0017878736834973097 -11.800138473510742 -0.0010179518721997738
          0.006708670407533646 -11.807792663574219 0.0015243076486513019 -0.0030980203300714493 -11.79699993133545 -0.0007047920953482389
          0.0038379598408937454 -11.797309875488281 0.003163245040923357 0.0015474050305783749 -11.79984188079834 0.0039139254949986935
          0.004361005034297705 -11.798480033874512 0.00453735888004303 0.0033204681240022182 -11.800020217895508 0.0039102667942643166
          0.0016138560604304075 -11.801329612731934 0.0021942718885838985 -0.00010515423491597176 -11.80182933807373 0.00039115812978707254
          -0.0018991492688655853 -11.799379348754883 -0.0007077442714944482 -0.00038865298847667873 -11.800349235534668 0.005814476870000362
          -0.001271774061024189 -11.79751968383789 0.00625720014795661 -0.00009773128113010898 -11.796100616455078 0.006321737077087164
          0.0006090742535889149 -11.795050621032715 0.00600873539224267 0.0020198083948343992 -11.795080184936523 0.004988895263522863
          -0.005981780588626862 -11.809309005737305 -0.007863108068704605 0.006768572144210339 -11.81920051574707 -0.0037070661783218384
          0.013802597299218178 -11.81112003326416 0.0009131520055234432 0.005926938261836767 -11.80640983581543 0.0032397627364844084
          0.0011703770142048597 -11.802789688110352 0.004465663339942694 -0.002967230277135968 -11.797809600830078 -0.0018291240558028221
          -0.0023322205524891615 -11.798589706420898 -0.0024605870712548494 0.00028905519866384566 -11.798910140991211 -0.003846217645332217
          -0.017143551260232925 -11.794401168823242 -0.0008752510184422135 0.008536000736057758 -11.78501033782959 -0.006181017030030489
          0.0004303700407035649 -11.80461311340332 0.007135281804949045 -0.002403935184702277 -11.80056381225586 0.008212277665734291
          -0.00007834025018382818 -11.79902458190918 0.00842959713190794 0.0008610985241830349 -11.79747486114502 0.008312570862472057
          0.0030599862802773714 -11.796674728393555 0.007449781522154808 0.0034505650401115417 -11.810400009155273 0.005283001344650984
          -0.0031970127020031214 -11.803999900817871 0.0068656811490654945 0.0008017554646357894 -11.80248737335205 0.007137568201869726
          0.0013054220471531153 -11.800162315368652 0.007201023865491152 0.0027917674742639065 -11.798725128173828 0.006461743731051683
          0.006183943245559931 -11.817999839782715 0.002759582595899701 -0.006140424869954586 -11.806212425231934 0.005035435780882835
          0.0011549314949661493 -11.804550170898438 0.004761924035847187 0.0007576989592052996 -11.80201244354248 0.004722452722489834
          0.0015758798690512776 -11.800424575805664 0.004043665248900652 0.003642326220870018 -11.82548713684082 -0.0005235673161223531
          -0.012943137437105179 -11.805998802185059 0.0029284264892339706 0.0006871783407405019 -11.805450439453125 0.00145818293094635