<VTKFile type="UnstructuredGrid" version="1.0" byte_order="LittleEndian" header_type="UInt64">
  <UnstructuredGrid>
    <Piece NumberOfPoints="2744" NumberOfCells="11880">
      <PointData>
        <DataArray type="Float32" Name="Velocity" NumberOfComponents="3" format="ascii" RangeMin="10.925900612253528" RangeMax="12.62759993175021">
          -0.00973751675337553 -11.065933227539062 -0.004025893285870552 0.006961911916732788 -11.182439804077148 0.004559186287224293
          -0.010156605392694473 -11.171079635620117 0.004245850257575512 0.011048638261854649 -11.064582824707031 -0.0021792419720441103
          0.008634899742901325 -11.125040054321289 0.007207646034657955 0.006719564087688923 -11.080560684204102 0.005138778127729893
          0.00410935003310442 -11.054659843444824 0.002579340012744069 0.0020021903328597546 -11.044659614562988 0.000631810980848968
          -0.0037207596469670534 -11.042119979858398 -0.0011063599959015846 -0.007192289922386408 -11.148080825805664 0.0065209707245230675
          -0.003971263766288757 -11.136340141296387 0.0069670723751187325 -0.0024551297537982464 -11.135920524597168 0.007209076080471277
          -0.0010041700443252921 -11.141980171203613 0.007141560316085815 0.0028275721706449986 -11.15742015838623 0.006732624024152756
          0.004329657182097435 -11.029749870300293 -0.00047534002806060016 -0.004247302655130625 -11.06801700592041 -0.0009513727272860706
          -0.0070687271654605865 -11.058460235595703 0.001909439219161868 -0.010365590453147888 -11.081319808959961 0.0042877038940787315
          -0.012560494244098663 -11.119020462036133 0.006376300007104874 -0.005367645528167486 -10.961560249328613 -0.006630553863942623
          -0.0017072897171601653 -10.970680236816406 -0.007370805833488703 0.00038658472476527095 -10.972339630126953 -0.007630734238773584
          0.0030266880057752132 -10.970080375671387 -0.007064267992973328 0.007407097611576319 -10.965780258178711 -0.006623956374824047
          -0.008156949654221535 -11.0576753616333 0.009998740628361702 -0.004232392646372318 -11.048500061035156 0.00976276770234108
          -0.0022557706106454134 -11.0482759475708 0.009880666621029377 -0.0009646664839237928 -11.052200317382812 0.010101580061018467
          0.004053554031997919 -11.062950134277344 0.010598285123705864 -0.005847900174558163 -10.995349884033203 0.006899162661284208
          -0.0029669548384845257 -10.990400314331055 0.00680547533556819 -0.0006943057524040341 -10.990274429321289 0.006889122538268566
          0.00019506548414938152 -10.990924835205078 0.007054012268781662 0.003471371717751026 -10.995124816894531 0.007405240088701248
          -0.0033019264228641987 -10.954899787902832 0.004025167319923639 -0.0015876172110438347 -10.95324993133545 0.003992634825408459
          0.0003493537660688162 -10.953225135803223 0.004055565223097801 0.0006022460293024778 -10.952749252319336 0.004118544980883598
          0.0022050775587558746 -10.9547758102417 0.004230932332575321 -0.00011083378922194242 -10.933024406433105 0.0019470525439828634
          0.0005564799648709595 -10.934399604797363 0.0019623299594968557 0.0008516563684679568 -10.934450149536133 0.0020963374990969896
          0.0005718988832086325 -10.933650016784668 0.002190067432820797 0.0013442629715427756 -10.934499740600586 0.0022294074296951294
          0.004605335183441639 -10.92704963684082 -0.0010941850487142801 0.0024565723724663258 -10.9281005859375 -0.0014273475389927626
          0.0005761272041127086 -10.928375244140625 -0.0015044125029817224 -0.0004398692399263382 -10.926825523376465 -0.0013078399933874607
          -0.0016205634456127882 -10.92590045928955 -0.0008463524864055216 -0.00828555878251791 -11.39400863647461 -0.004940333776175976
          0.006171606946736574 -11.459550857543945 0.005982444155961275 -0.009207149967551231 -11.454779624938965 0.005539202596992254
          0.009912214241921902 -11.39399242401123 -0.0029922889079898596 0.007966172881424427 -11.429580688476562 0.009352442808449268
          0.0063762180507183075 -11.40591049194336 0.006655885837972164 0.003995801322162151 -11.391220092773438 0.0033897794783115387
          0.001804588595405221 -11.385119438171387 0.0007627502782270312 -0.0033643669448792934 -11.382719993591309 -0.0016272630309686065
          -0.0066823214292526245 -11.44049072265625 0.008716103620827198 -0.003829744178801775 -11.43302059173584 0.009518766775727272
          -0.002296268008649349 -11.432480812072754 0.009775112383067608 -0.0009551799157634377 -11.43556022644043 0.009657511487603188
          0.0024666860699653625 -11.444099426269531 0.008937031030654907 0.003656830172985792 -11.374011993408203 -0.0008345075184479356
          -0.0035624990705400705 -11.398140907287598 -0.0010300104040652514 -0.006843944080173969 -11.394571304321289 0.0024770982563495636
          -0.010010654106736183 -11.40825080871582 0.005548345856368542 -0.011891521513462067 -11.427909851074219 0.008320930413901806
          -0.0052779014222323895 -11.333149909973145 -0.00833169836550951 -0.0015409474726766348 -11.339459419250488 -0.009642558172345161
          0.00042015835060738027 -11.340869903564453 -0.010051225312054157 0.0029178177937865257 -11.33942985534668 -0.009389340877532959
          0.007015235722064972 -11.33629035949707 -0.008870631456375122 -0.007854231633245945 -11.391050338745117 0.013035482726991177
          -0.004232666455209255 -11.385187149047852 0.01288184616714716 -0.002195296809077263 -11.384949684143066 0.01301809586584568
          -0.0008724360959604383 -11.386775016784668 0.013268576934933662 0.003781092818826437 -11.392525672912598 0.013785092160105705
          -0.005903610028326511 -11.356812477111816 0.00907505676150322 -0.0031455904245376587 -11.353300094604492 0.009012634865939617
          -0.0008358345367014408 -11.353161811828613 0.009134960360825062 0.00014055492647457868 -11.35303783416748 0.00936814583837986
          0.0033739591017365456 -11.35515022277832 0.009779543615877628 -0.0031149203423410654 -11.33233642578125 0.0052739838138222694
          -0.001538807642646134 -11.331374168395996 0.005233717616647482 0.0003170051204506308 -11.331350326538086 0.0053060767240822315
          0.000629121670499444 -11.330499649047852 0.005440059117972851 0.0022697674576193094 -11.331387519836426 0.0056095486506819725
          -0.00003327302692923695 -11.318573951721191 0.0024619700852781534 0.0006409775232896209 -11.320086479187012 0.0023689637891948223
          0.000879978179000318 -11.320124626159668 0.0024195637088268995 0.0005897232331335545 -11.319062232971191 0.002509142505005002
          0.0011793040903285146 -11.319262504577637 0.002607756294310093 0.004250432830303907 -11.31512451171875 -0.0016137761995196342
          0.0023652873933315277 -11.316274642944336 -0.0019734862726181746 0.0006260062800720334 -11.316474914550781 -0.002115966286510229
          -0.00037453536060638726 -11.314988136291504 -0.0020261763129383326 -0.0017674637492746115 -11.313974380493164 -0.0015117712318897247
          -0.006243770942091942 -11.753491401672363 -0.005227366928011179 0.004897628910839558 -11.760348320007324 0.0073439679108560085
          -0.00776759535074234 -11.762889862060547 0.006784898694604635 0.008236889727413654 -11.754775047302246 -0.003584605408832431
          0.006779354996979237 -11.761140823364258 0.011085099540650845 0.005697410553693771 -11.761019706726074 0.007895050570368767
          0.003649519057944417 -11.759560585021973 0.004091835115104914 0.0014534620568156242 -11.75829029083252 0.0009480867302045226
          -0.0025507535319775343 -11.75625991821289 -0.002174337161704898 -0.0059102545492351055 -11.758700370788574 0.010698923841118813
          -0.003610075218603015 -11.756139755249023 0.011787145398557186 -0.002116149989888072 -11.755430221557617 0.012078197672963142
          -0.0009467516210861504 -11.755109786987305 0.011904233135282993 0.0018637937027961016 -11.755849838256836 0.01094832457602024
          0.002906748792156577 -11.752463340759277 -0.0013997538480907679 -0.0025830643717199564 -11.759490966796875 -0.0009457843843847513
          -0.006239296402782202 -11.762419700622559 0.0029190394561737776 -0.009200191125273705 -11.765271186828613 0.006528724916279316
          -0.010539662092924118 -11.764420509338379 0.009885367937386036 -0.005027530714869499 -11.743439674377441 -0.009388851933181286
          -0.0012509084772318602 -11.746509552001953 -0.011181817390024662 0.00048588309437036514 -11.747649192810059 -0.011791051365435123
          0.002740188967436552 -11.747139930725098 -0.011041296645998955 0.0063270702958106995 -11.745400428771973 -0.010322580114006996
          -0.007272241171449423 -11.756375312805176 0.01554811280220747 -0.0042153773829340935 -11.754274368286133 0.015651199966669083
          -0.0021119187586009502 -11.754012107849121 0.01582586206495762 -0.0007318505086004734 -11.753412246704102 0.01607617363333702
          0.0033239431213587523 -11.753475189208984 0.01643781177699566 -0.005774761084467173 -11.754325866699219 0.010872885584831238
          -0.003320899559184909 -11.752574920654297 0.010990036651492119 -0.0009704375406727195 -11.75243854522705 0.01118265651166439
          0.00011976704263361171 -11.751338005065918 0.011443319730460644 0.0031596324406564236 -11.750900268554688 0.011767268180847168
          -0.002903855172917247 -11.74905014038086 0.006357826292514801 -0.0016040531918406487 -11.74896240234375 0.006405713967978954
          0.00028090958949178457 -11.74897575378418 0.006518052890896797 0.0006712628528475761 -11.747625350952148 0.006708757486194372
          0.0022370684891939163 -11.747100830078125 0.006795761175453663 0.0000714510097168386 -11.745162010192871 0.0028100996278226376
          0.0006961412727832794 -11.746849060058594 0.0026886644773185253 0.0009122654446400702 -11.746861457824707 0.002671972382813692
          0.0006219854112714529 -11.745499610900879 0.002755797700956464 0.0009288350702263415 -11.744925498962402 0.0028682865668088198
          0.0037522197235375643 -11.744800567626953 -0.0023326415102928877 0.0023167349863797426 -11.746199607849121 -0.002742721699178219
          0.0006886008195579052 -11.74625015258789 -0.002963425125926733 -0.0001986022398341447 -11.7446870803833 -0.0028764610178768635
          -0.001921166549436748 -11.743412971496582 -0.0022208085283637047 -0.005223812069743872 -11.789525032043457 -0.003959661815315485
          0.004041389562189579 -11.787449836730957 0.006862176116555929 -0.006874869577586651 -11.790789604187012 0.006366155110299587
          0.007231468800455332 -11.790633201599121 -0.0030387910082936287 0.00583770452067256 -11.791619300842285 0.010092943906784058
          0.005087406374514103 -11.794560432434082 0.007390046026557684 0.003226035740226507 -11.795559883117676 0.003951124846935272
          0.0011682339245453477 -11.795459747314453 0.001073357998393476 -0.0020518372766673565 -11.79362964630127 -0.0019275043159723282
          -0.005440547131001949 -11.788249015808105 0.009825109504163265 -0.003487445879727602 -11.786359786987305 0.010905767790973186
          -0.002084955107420683 -11.785629272460938 0.011204616166651249 -0.0010188421001657844 -11.78484058380127 0.01099031139165163
          0.0014250330859795213 -11.784679412841797 0.01007060892879963 0.0026990827172994614 -11.791637420654297 -0.0016149251023307443
          -0.0021099539007991552 -11.795158386230469 -0.0005900033283978701 -0.00547749875113368 -11.798299789428711 0.0027416301891207695
          -0.008267010562121868 -11.799080848693848 0.006006921175867319 -0.009335676208138466 -11.795650482177734 0.008963207714259624
          -0.004665743559598923 -11.787969589233398 -0.0077188583090901375 -0.0010375306010246277 -11.7904691696167 -0.009466827847063541
          0.00047514899051748216 -11.791548728942871 -0.010109198279678822 0.002573390956968069 -11.791199684143066 -0.009386466816067696
          0.005719770211726427 -11.789750099182129 -0.008555542677640915 -0.006763570476323366 -11.79259967803955 0.014168399386107922
          -0.004160135053098202 -11.791000366210938 0.014592086896300316 -0.002067243680357933 -11.790725708007812 0.014799262396991253
          -0.0006694372859783471 -11.789774894714355 0.014973638579249382 0.002954090479761362 -11.789050102233887 0.014997348189353943
          -0.005347464699298143 -11.795137405395508 0.010088277980685234 -0.003281193319708109 -11.793924331665039 0.010488716885447502
          -0.0009452055674046278 -11.79379940032959 0.010728293098509312 0.00017394129827152938 -11.792462348937988 0.010917892679572105
          0.002919797319918871 -11.791462898254395 0.010982080362737179 -0.0027247625403106213 -11.793962478637695 0.006008767522871494
          -0.001697617000900209 -11.794123649597168 0.006250984501093626 0.00027539790607988834 -11.794175148010254 0.006371330004185438
          0.0006920925225131214 -11.79270076751709 0.006516122259199619 0.0020628098864108324 -11.791812896728516 0.006460503675043583
          0.000113451256765984 -11.792425155639648 0.002550290198996663 0.0006728412117809057 -11.793974876403809 0.0025152992457151413
          0.0009479482541792095 -11.793974876403809 0.0025734498631209135 0.0006905270274728537 -11.792588233947754 0.0026599732227623463
          0.0008013187907636166 -11.791837692260742 0.0026715844869613647 0.003442903747782111 -11.792487144470215 -0.0023763973731547594
          0.002329221460968256 -11.793988227844238 -0.0028554745949804783 0.0007336973794735968 -11.793936729431152 -0.0030375102069228888
          -0.000009079736628336832 -11.79224967956543 -0.0028115480672568083 -0.0019022419583052397 -11.790837287902832 -0.002133966889232397
          -0.0044715129770338535 -11.795125007629395 -0.0028231895994395018 0.003368056146427989 -11.791799545288086 0.006110692396759987
          -0.006145671010017395 -11.795149803161621 0.005663457792252302 0.006428439170122147 -11.796042442321777 -0.002424874808639288
          0.00502372533082962 -11.795598983764648 0.00896655023097992 0.004534941632300615 -11.798768997192383 0.006904723588377237
          0.002870336640626192 -11.800329208374023 0.003854626091197133 0.0009393373620696366 -11.800569534301758 0.001200484810397029
          -0.0019948205444961786 -11.798690795898438 -0.0014047042932361364 -0.005056544207036495 -11.792940139770508 0.008593233302235603
          -0.003378103021532297 -11.791069984436035 0.009716647677123547 -0.0020565460436046124 -11.790360450744629 0.009999042376875877
          -0.0010825906647369266 -11.78954029083252 0.009754089638590813 0.0010600918903946877 -11.789430618286133 0.008841044269502163
          0.0024748926516622305 -11.797499656677246 -0.001526320120319724 -0.0017645579064264894 -11.800284385681152 -0.0002751179854385555
          -0.004794656299054623 -11.802939414978027 0.0026117637753486633 -0.0073942518793046474 -11.803229331970215 0.005555124022066593
          -0.0083869444206357 -11.799829483032227 0.007941720075905323 -0.0042514679953455925 -11.794839859008789 -0.0058516040444374084
          -0.0009041667799465358 -11.797019958496094 -0.007575188763439655 0.00041673099622130394 -11.798039436340332 -0.008225418627262115
          0.002392983064055443 -11.797769546508789 -0.007567219436168671 0.005164791829884052 -11.796460151672363 -0.0067057362757623196
          -0.0063359360210597515 -11.79751205444336 0.012550188228487968 -0.004067664034664631 -11.7959623336792 0.013197413645684719
          -0.002022036351263523 -11.795675277709961 0.013427299447357655 -0.0006492796819657087 -11.794700622558594 0.013519462198019028
          0.002578369341790676 -11.79384994506836 0.013252188451588154 -0.004922529682517052 -11.800537109375 0.009308231994509697
          -0.0031898519955575466 -11.799537658691406 0.009909704327583313 -0.0009068322251550853 -11.799400329589844 0.010166721418499947
          0.0002138845156878233 -11.798011779785156 0.01030217856168747 0.002671671099960804 -11.796899795532227 0.010164858773350716
          -0.002419392578303814 -11.80046272277832 0.005617909599095583 -0.0016312344232574105 -11.800687789916992 0.005988935474306345
          0.00028789968928322196 -11.800675392150879 0.0061303433030843735 0.0006984615465626121 -11.799188613891602 0.0062796627171337605
          0.001914193737320602 -11.798212051391602 0.006144876126199961 0.0001947610144270584 -11.799612045288086 0.002344437874853611
          0.0006977887824177742 -11.800987243652344 0.002383803715929389 0.0009976368164643645 -11.80093765258789 0.0025061757769435644
          0.0007516442565247416 -11.799537658691406 0.0025751665234565735 0.0007207612507045269 -11.798763275146484 0.0025304192677140236
          0.0031759310513734818 -11.79941177368164 -0.0020525245927274227 0.0022673672065138817 -11.800786972045898 -0.002505243755877018
          0.0007792423130013049 -11.800711631774902 -0.002662675455212593 0.00010350650700274855 -11.799087524414062 -0.002461443655192852
          -0.0018668922130018473 -11.79783821105957 -0.0018181618070229888 -0.0038923623505979776 -11.796391487121582 -0.0019344420870766044
          0.0028129639104008675 -11.793190002441406 0.005482378415763378 -0.005564688704907894 -11.796369552612305 0.0050683640874922276
          0.0057852319441735744 -11.797149658203125 -0.0018715964397415519 0.004278453066945076 -11.796250343322754 0.00796270091086626
          0.003990281838923693 -11.799128532409668 0.006390138529241085 0.002570474985986948 -11.800760269165039 0.00373555114492774
          0.0007634962676092982 -11.801139831542969 0.0013144927797839046 -0.0019458126043900847 -11.799290657043457 -0.000924811523873359
          -0.004723092075437307 -11.794300079345703 0.007549879141151905 -0.0032392069697380066 -11.79242992401123 0.008622599765658379
          -0.0020232521928846836 -11.79170036315918 0.008904694579541683 -0.0011465424904599786 -11.790919303894043 0.008661722764372826
          0.0007333849789574742 -11.790899276733398 0.007808490190654993 0.0023038219660520554 -11.798487663269043 -0.0012895535910502076
          -0.0014539975672960281 -11.801009178161621 -0.00003908130747731775 -0.004219761583954096 -11.803349494934082 0.0024915472604334354
          -0.006645120680332184 -11.803569793701172 0.005119698122143745 -0.0075834267772734165 -11.800459861755371 0.007036732975393534
          -0.0038559797685593367 -11.796030044555664 -0.004343606997281313 -0.0007910708663985133 -11.797900199890137 -0.005948695819824934
          0.00040497799636796117 -11.798879623413086 -0.006588832940906286 0.0022541279904544353 -11.798649787902832 -0.006010045297443867
          0.00471870880573988 -11.797510147094727 -0.005137248430401087 -0.0059441388584673405 -11.798199653625488 0.011103442870080471
          -0.003949142526835203 -11.796650886535645 0.011889436282217503 -0.001976979896426201 -11.796350479125977 0.01213728729635477
          -0.0006414251984097064 -11.79537582397461 0.012169274501502514 0.002201344817876816 -11.794587135314941 0.011689211241900921
          -0.004511707462370396 -11.801074981689453 0.008525935001671314 -0.0030415852088481188 -11.800063133239746 0.009257222525775433
          -0.0008694106945767999 -11.799912452697754 0.00954686850309372 0.00024062179727479815 -11.79849910736084 0.009640221484005451
          0.0024212864227592945 -11.797412872314453 0.0093512162566185 -0.0021327368449419737 -11.801262855529785 0.005223497748374939
          -0.0015331438044086099 -11.801462173461914 0.005681553855538368 0.00030540861189365387 -11.801374435424805 0.005872960202395916
          0.0007007499225437641 -11.799887657165527 0.006032018922269344 0.001796669908799231 -11.798888206481934 0.005827050190418959
          0.00028139937785454094 -11.80055046081543 0.0021892227232456207 0.0006907362840138376 -11.801874160766602 0.0023057216312736273
          0.0010203690035268664 -11.801762580871582 0.0024131350219249725 0.0007714765379205346 -11.800363540649414 0.0024762959219515324
          0.0006590287666767836 -11.799613952636719 0.002426857827231288 0.0029810925479978323 -11.800162315368652 -0.0016722034197300673
          0.0021822750568389893 -11.801387786865234 -0.002064330969005823 0.0007908545667305589 -11.801312446594238 -0.0022365960758179426
          0.00017733861750457436 -11.799776077270508 -0.002047846559435129 -0.0018113323021680117 -11.798712730407715 -0.001404165755957365
          -0.003429427044466138 -11.7968168258667 -0.0012273971224203706 0.0023438490461558104 -11.793939590454102 0.0049437666311860085
          -0.005066347308456898 -11.796979904174805 0.0045811268500983715 0.005217303056269884 -11.797358512878418 -0.00137587811332196
          0.00364161329343915 -11.796429634094238 0.00710501242429018 0.0035007367841899395 -11.798869132995605 0.005906081758439541
          0.0022954619489610195 -11.800429344177246 0.0036118950229138136 0.0006093726260587573 -11.800920486450195 0.0014169609639793634
          -0.0018755944911390543 -11.799150466918945 -0.0004896719474345446 -0.004403240513056517 -11.795010566711426 0.006684939377009869
          -0.0031050038523972034 -11.793129920959473 0.007707047276198864 -0.0019960717763751745 -11.79236888885498 0.007986854761838913
          -0.001210091752000153 -11.79163932800293 0.007744147442281246 0.0004396950826048851 -11.791679382324219 0.006926866713911295
          0.002164706587791443 -11.798587799072266 -0.001003585522994399 -0.0011838092468678951 -11.80097484588623 0.00017176118853967637
          -0.0036974872928112745 -11.803059577941895 0.002398582873865962 -0.005997064523398876 -11.803289413452148 0.004697402007877827
          -0.006896473467350006 -11.800500869750977 0.0062547894194722176 -0.003527086228132248 -11.796091079711914 -0.0031193348113447428
          -0.000696419330779463 -11.797719955444336 -0.004610800184309483 0.0004100940132047981 -11.79874038696289 -0.005213483236730099
          0.0021473460365086794 -11.798530578613281 -0.004705509170889854 0.004356143064796925 -11.797530174255371 -0.0038981828838586807
          -0.005590722896158695 -11.798212051391602 0.00984136387705803 -0.003820926183834672 -11.796637535095215 0.010714291594922543
          -0.0019357135752215981 -11.796299934387207 0.010973193682730198 -0.000643213395960629 -11.795350074768066 0.010963900946080685
          0.0018740303348749876 -11.79471206665039 0.010366387665271759 -0.004132851492613554 -11.800763130187988 0.007774468511343002
          -0.0028951202984899282 -11.799712181091309 0.00860518030822277 -0.0008388131973333657 -11.799525260925293 0.008923483081161976
          0.00024737551575526595 -11.798125267028809 0.008982650935649872 0.0021867197938263416 -11.797099113464355 0.008597572334110737
          -0.0018747837748378515 -11.800987243652344 0.004862369503825903 -0.001441196189261973 -11.801124572753906 0.005405248608440161
          0.00031467791995964944 -11.801012992858887 0.005605272017419338 0.0007022179197520018 -11.79955005645752 0.0057390788570046425
          0.0016830374952405691 -11.798537254333496 0.005514515098184347 0.000351671245880425 -11.800325393676758 0.0021006951574236155
          0.0006780137773603201 -11.80153751373291 0.0022393090184777975 0.001032347558066249 -11.801412582397461 0.002331777010113001
          0.0007973274914547801 -11.800049781799316 0.0024210582487285137 0.0006120349862612784 -11.799337387084961 0.0023559529799968004
          0.0028210249729454517 -11.799850463867188 -0.0012664025416597724 0.0021013563964515924 -11.800925254821777 -0.0016336559783667326
          0.000794903957284987 -11.800837516784668 -0.001783551648259163 0.00025267060846090317 -11.799349784851074 -0.0015505379997193813
          -0.0017144759185612202 -11.79842472076416 -0.0009604842634871602 -0.0030622007325291634 -11.797032356262207 -0.000655806390568614
          0.001946055330336094 -11.794479370117188 0.004495865665376186 -0.004622519947588444 -11.797430038452148 0.004163743928074837
          0.004756506532430649 -11.797409057617188 -0.0009476495906710625 0.003118483815342188 -11.796500205993652 0.006366160698235035
          0.003080609254539013 -11.798500061035156 0.005469826050102711 0.0020283341873437166 -11.800000190734863 0.00347866490483284
          0.0004686001338995993 -11.800580024719238 0.0015062009915709496 -0.0018014581874012947 -11.798910140991211 -0.00010306886542821303
          -0.004101203754544258 -11.795510292053223 0.005973504856228828 -0.0029883640818297863 -11.793620109558105 0.0069286092184484005
          -0.0019693379290401936 -11.792850494384766 0.007195518352091312 -0.00127270573284477 -11.792160034179688 0.006972556468099356
          0.00018919460126198828 -11.79224967956543 0.006204079370945692 0.0020515164360404015 -11.798500061035156 -0.0007132897153496742
          -0.0009510636446066201 -11.80079174041748 0.0003542907943483442 -0.0032391883432865143 -11.80265998840332 0.0023094462230801582
          -0.005443053785711527 -11.802910804748535 0.004323657602071762 -0.006303715519607067 -11.800459861755371 0.00559571897611022
          -0.003235356882214546 -11.795979499816895 -0.0021338998340070248 -0.0006153267459012568 -11.797399520874023 -0.003492877585813403
          0.00041358996531926095 -11.798439025878906 -0.004068904090672731 0.0020550950430333614 -11.798270225524902 -0.0036345471162348986
          0.004068711306899786 -11.797380447387695 -0.002909428905695677 -0.005265168845653534 -11.798136711120605 0.008767207153141499
          -0.003688675118610263 -11.79651165008545 0.0096732834354043 -0.0018978100270032883 -11.796136856079102 0.009935964830219746
          -0.0006560453330166638 -11.795226097106934 0.009897162206470966 0.0016102633671835065 -11.794687271118164 0.009247541427612305
          -0.0038682138547301292 -11.800336837768555 0.007131996564567089 -0.0028118120972067118 -11.799237251281738 0.008016320876777172
          -0.0008129425696097314 -11.798998832702637 0.008317398838698864 0.00024064333410933614 -11.797625541687012 0.008348721079528332
          0.001977812498807907 -11.796650886535645 0.007908806204795837 -0.0016600037924945354 -11.800525665283203 0.004544035531580448
          -0.0013698020484298468 -11.800600051879883 0.005130782723426819 0.00032776291482150555 -11.80046272277832 0.005332377273589373
          0.0007001000340096653 -11.799013137817383 0.005463485140353441 0.0015490790829062462 -11.798038482666016 0.005200569983571768
          0.0004671025089919567 -11.799887657165527 0.0020181434229016304 0.0007291800575330853 -11.801000595092773 0.0021781667601317167
          0.0010468204272910953 -11.800849914550781 0.002291371114552021 0.0008218241855502129 -11.79949951171875 0.0023991402704268694
          0.0005677227163687348 -11.79886245727539 0.002315070480108261 0.0027048250194638968 -11.79938793182373 -0.0008918866515159607
          0.0020574701484292746 -11.800337791442871 -0.0011964095756411552 0.0008072624332271516 -11.800210952758789 -0.001323833828791976
          0.0003203318628948182 -11.798763275146484 -0.0010890524135902524 -0.001612284453585744 -11.79798698425293 -0.0005423108814284205
          -0.0027735678013414145 -11.797207832336426 -0.0001846029335865751 0.0016058696201071143 -11.794889450073242 0.004113224800676107
          -0.0042876796796917915 -11.797769546508789 0.0038111477624624968 0.004397078417241573 -11.797467231750488 -0.0005785625544376671
          0.0026696897111833096 -11.796529769897461 0.005737069994211197 0.0027083088643848896 -11.798200607299805 0.005073013715445995
          0.0017881793901324272 -11.799610137939453 0.0033540569711476564 0.0003484259359538555 -11.800219535827637 0.0015938939759507775
          -0.0017263045301660895 -11.798680305480957 0.000238263193750754 -0.0038448204286396503 -11.795889854431152 0.005385647062212229
          -0.0028768780175596476 -11.79401969909668 0.006262233946472406 -0.0019460180774331093 -11.793249130249023 0.006516151130199432
          -0.0013339888537302613 -11.792591094970703 0.006315416190773249 -0.00002551088073232677 -11.792719841003418 0.00559863168746233
          0.001957821659743786 -11.798362731933594 -0.0004351214738562703 -0.0007537463097833097 -11.800575256347656 0.0005153341335244477
          -0.0028487457893788815 -11.80226993560791 0.002239959081634879 -0.0049530272372066975 -11.802560806274414 0.003990852274000645
          -0.005775535944849253 -11.800409317016602 0.0050353677943348885 -0.0029617079999297857 -11.795938491821289 -0.0013529512798413634
          -0.0005054256762377918 -11.79718017578125 -0.0025758373085409403 0.0004164801794104278 -11.798150062561035 -0.003104819217696786
          0.0019740520510822535 -11.798029899597168 -0.0027377172373235226 0.0038231019861996174 -11.797239303588867 -0.0021018171682953835
          -0.004932314157485962 -11.798074722290039 0.007829629816114902 -0.003543457482010126 -11.796424865722656 0.008741023950278759
          -0.0018638675101101398 -11.796025276184082 0.009018806740641594 -0.0006781412521377206 -11.795125961303711 0.008957174606621265
          0.0013751587830483913 -11.794663429260254 0.00828166026622057 -0.0036241440102458 -11.799938201904297 0.0065447986125946045
          -0.002725054044276476 -11.798788070678711 0.0074508762918412685 -0.0007881277706474066 -11.798524856567383 0.0077395131811499596
          0.0002241481706732884 -11.797162055969238 0.007750635500997305 0.001785665052011609 -11.79626178741455 0.00727966008707881
          -0.001489841379225254 -11.80002498626709 0.004285224713385105 -0.0013065862003713846 -11.80003833770752 0.00487832585349679
          0.00034417628194205463 -11.79990005493164 0.00506537314504385 0.0006922649336047471 -11.798462867736816 0.005204268731176853
          0.001422166358679533 -11.7975492477417 0.004921560175716877 0.000569582509342581 -11.799400329589844 0.0019787342753261328